{
  "id": "sucrose",
  "type": "compound",
  "name": "Sucrose",
  "aliases": ["Table Sugar", "Cane Sugar", "Saccharose"],
  "chemicalFormula": "C₁₂H₂₂O₁₁",
  "explicitSmiles": "C([C@@H]1[C@H]([C@@H]([C@H]([C@H](O1)O[C@]2([C@H]([C@@H]([C@H](O2)CO)O)O)CO)O)O)O)O",
  "explicitSmilesSource": "PubChem CID 5988 (OEChem 4.2.0, PubChem release 2025.09.15)",
  "molarMass": 342.297,
  "deltaHf": -2222.1,
  "deltaGf": -1544.3,
  
  "elements": [
    {
      "symbol": "C",
      "atomicNumber": 6,
      "count": 12,
      "reference": "periodic-table/006_C_nonmetal.json"
    },
    {
      "symbol": "H",
      "atomicNumber": 1,
      "count": 22,
      "reference": "periodic-table/001_H_nonmetal.json"
    },
    {
      "symbol": "O",
      "atomicNumber": 8,
      "count": 11,
      "reference": "periodic-table/008_O_nonmetal.json"
    }
  ],
  
  "phaseTransitions": {
    "meltingPoint": 186.0,
    "boilingPoint": null,
    "decompositionNote": "Decomposes at ~186°C (melts and caramelizes); does not boil - decomposes before boiling",
    "triplePoint": null,
    "criticalPoint": null
  },
  
  "states": ["solid", "liquid"],
  "commonUses": ["sweetener", "food preservation", "fermentation (making alcohol)", "baking", "candy making"],
  "safetyNotes": "Generally safe; provides dietary calories; excessive consumption linked to health issues; caramelized sugar can cause severe burns",
  "educationalNotes": "Does not have a normal boiling point - decomposes into caramel before boiling! Melts at 186°C. When heated, sucrose breaks down into glucose + fructose, then further decomposes into hundreds of flavor/color compounds (caramelization). Solubility in water increases dramatically with temperature (180g/100mL at 0°C → 487g/100mL at 100°C).",
  "lastUpdated": "2026-01-27"
}


