{
  "atomicNumber": 1,
  "symbol": "H",
  "name": "Hydrogen",
  "elementCategory": "nonmetal",
  "chemicalBlock": "s",
  "valenceElectrons": 1,
  "oxidationStates": [
    1,
    -1
  ],
  "standardUsed": "iupac",
  "nist": {
    "atomicMass": 1.008,
    "electronegativity": 2.2,
    "ionizationEnergy": 1312,
    "atomicRadius": 37,
    "electronAffinity": 72.8,
    "standardMolarEntropy": 130.57,
    "specificHeatCapacity": 14.3,
    "meltingPoint": -259.16,
    "boilingPoint": -252.87,
    "density": 0.00008988,
    "thermalConductivity": 0.1815,
    "source": "NIST Chemistry WebBook 2024"
  },
  "iupac": {
    "atomicMass": 1.008,
    "electronegativity": 2.2,
    "ionizationEnergy": 1312,
    "atomicRadius": 37,
    "electronAffinity": 72.8,
    "standardMolarEntropy": 130.57,
    "specificHeatCapacity": 14.3,
    "meltingPoint": -259.16,
    "boilingPoint": -252.87,
    "density": 0.00008988,
    "thermalConductivity": 0.1815,
    "source": "IUPAC Periodic Table 2024"
  },
  "physicalProperties": {
    "phase": "gas",
    "appearance": "colorless, odorless gas",
    "uses": [],
    "notes": "Element of the nonmetal group"
  },
  "lastUpdated": "2026-01-27",
  "educationalNotes": "Most abundant element in the universe (75% of all matter)! Discovered by Henry Cavendish in 1766. Name from Greek 'hydro genes' meaning 'water-former' - burns in oxygen to make H₂O. Used in rocket fuel (liquid hydrogen), fuel cells for clean energy, and making ammonia fertilizer. Lightest element - a hydrogen balloon floats because H₂ is 14× lighter than air. Three isotopes: protium (99.98%), deuterium (heavy water), and tritium (radioactive, used in fusion research)."
}
