{
  "atomicNumber": 2,
  "symbol": "He",
  "name": "Helium",
  "elementCategory": "noble-gas",
  "chemicalBlock": "s",
  "valenceElectrons": 2,
  "oxidationStates": [
    0
  ],
  "standardUsed": "iupac",
  "nist": {
    "atomicMass": 4.003,
    "electronegativity": null,
    "ionizationEnergy": 2372.3,
    "atomicRadius": 31,
    "electronAffinity": 0,
    "standardMolarEntropy": 126.15,
    "specificHeatCapacity": 5.193,
    "meltingPoint": 0.95,
    "boilingPoint": 4.22,
    "density": 0.0001785,
    "thermalConductivity": 0.1513,
    "source": "NIST Chemistry WebBook 2024"
  },
  "iupac": {
    "atomicMass": 4.003,
    "electronegativity": null,
    "ionizationEnergy": 2372.3,
    "atomicRadius": 31,
    "electronAffinity": 0,
    "standardMolarEntropy": 126.15,
    "specificHeatCapacity": 5.193,
    "meltingPoint": 0.95,
    "boilingPoint": 4.22,
    "density": 0.0001785,
    "thermalConductivity": 0.1513,
    "source": "IUPAC Periodic Table 2024"
  },
  "physicalProperties": {
    "phase": "gas",
    "appearance": "colorless gas",
    "uses": [],
    "notes": "Element of the noble-gas group"
  },
  "lastUpdated": "2026-01-27",
  "educationalNotes": "Second most abundant element in the universe! Only element that doesn't solidify when cooled (stays liquid at absolute zero under normal pressure). Discovered in the Sun's spectrum in 1868 before being found on Earth. Helium balloons float because He is 7× lighter than air. Used in MRI machines (liquid cooling), deep-sea diving (replaces nitrogen to prevent 'the bends'), and as inert atmosphere for welding. Helium-3 isotope used in lunar regolith research.",
  "diffusion": {
    "atomicDiffusionVolume": 2.67,
    "unit": "dimensionless (cm³/mol conceptually)",
    "source": "Fuller 1966",
    "note": "Helium - noble gas, measured",
    "equation": "Fuller-Schettler-Giddings (1966)",
    "usage": "Sum atomic contributions for compound Σv, then: D_AB = 0.00143×T^1.75 / (P × M_AB^0.5 × (Σv_A^(1/3) + Σv_B^(1/3))²)"
  }
}
