{
  "atomicNumber": 3,
  "symbol": "Li",
  "name": "Lithium",
  "elementCategory": "alkali-metal",
  "chemicalBlock": "s",
  "valenceElectrons": 1,
  "oxidationStates": [
    1
  ],
  "standardUsed": "iupac",
  "nist": {
    "atomicMass": 6.94,
    "electronegativity": 0.98,
    "ionizationEnergy": 520.2,
    "atomicRadius": 152,
    "electronAffinity": 59.6,
    "standardMolarEntropy": 29.1,
    "specificHeatCapacity": 3.582,
    "meltingPoint": 180.5,
    "boilingPoint": 1342,
    "density": 0.534,
    "thermalConductivity": 85,
    "source": "NIST Chemistry WebBook 2024"
  },
  "iupac": {
    "atomicMass": 6.94,
    "electronegativity": 0.98,
    "ionizationEnergy": 520.2,
    "atomicRadius": 152,
    "electronAffinity": 59.6,
    "standardMolarEntropy": 29.1,
    "specificHeatCapacity": 3.582,
    "meltingPoint": 180.5,
    "boilingPoint": 1342,
    "density": 0.534,
    "thermalConductivity": 85,
    "source": "IUPAC Periodic Table 2024"
  },
  "physicalProperties": {
    "phase": "solid",
    "appearance": "soft, silvery-white metal",
    "uses": [],
    "notes": "Element of the alkali-metal group"
  },
  "lastUpdated": "2026-01-27",
  "educationalNotes": "Lightest metal on Earth! Key ingredient in rechargeable lithium-ion batteries powering phones, laptops, and electric cars. Discovered in 1817. Also used in nuclear weapons (lithium-6 produces tritium) and psychiatric medications (lithium carbonate treats bipolar disorder). When heated, burns with brilliant red flame. Reacts vigorously with water. Chile, Argentina, and China are major sources - lithium mining will boom as EV demand increases.",
  "diffusion": {
    "atomicDiffusionVolume": 10.5,
    "unit": "dimensionless (cm³/mol conceptually)",
    "source": "Estimated",
    "note": "Estimated from atomic radius",
    "equation": "Fuller-Schettler-Giddings (1966)",
    "usage": "Sum atomic contributions for compound Σv, then: D_AB = 0.00143×T^1.75 / (P × M_AB^0.5 × (Σv_A^(1/3) + Σv_B^(1/3))²)"
  }
}
