{
  "atomicNumber": 4,
  "symbol": "Be",
  "name": "Beryllium",
  "elementCategory": "alkaline-earth-metal",
  "chemicalBlock": "s",
  "valenceElectrons": 2,
  "oxidationStates": [
    2
  ],
  "standardUsed": "iupac",
  "nist": {
    "atomicMass": 9.012,
    "electronegativity": 1.57,
    "ionizationEnergy": 899.5,
    "atomicRadius": 112,
    "electronAffinity": -48,
    "standardMolarEntropy": 9.5,
    "specificHeatCapacity": 1.825,
    "meltingPoint": 1287,
    "boilingPoint": 2471,
    "density": 1.85,
    "thermalConductivity": 200,
    "source": "NIST Chemistry WebBook 2024"
  },
  "iupac": {
    "atomicMass": 9.012,
    "electronegativity": 1.57,
    "ionizationEnergy": 899.5,
    "atomicRadius": 112,
    "electronAffinity": -48,
    "standardMolarEntropy": 9.5,
    "specificHeatCapacity": 1.825,
    "meltingPoint": 1287,
    "boilingPoint": 2471,
    "density": 1.85,
    "thermalConductivity": 200,
    "source": "IUPAC Periodic Table 2024"
  },
  "physicalProperties": {
    "phase": "solid",
    "appearance": "hard, grayish-white metal",
    "uses": [],
    "notes": "Element of the alkaline-earth-metal group"
  },
  "lastUpdated": "2026-01-27",
  "diffusion": {
    "atomicDiffusionVolume": 8,
    "unit": "dimensionless (cm³/mol conceptually)",
    "source": "Estimated",
    "note": "Estimated from atomic radius",
    "equation": "Fuller-Schettler-Giddings (1966)",
    "usage": "Sum atomic contributions for compound Σv, then: D_AB = 0.00143×T^1.75 / (P × M_AB^0.5 × (Σv_A^(1/3) + Σv_B^(1/3))²)"
  }
}
