{
  "atomicNumber": 5,
  "symbol": "B",
  "name": "Boron",
  "elementCategory": "metalloid",
  "chemicalBlock": "p",
  "valenceElectrons": 3,
  "oxidationStates": [
    3
  ],
  "standardUsed": "iupac",
  "nist": {
    "atomicMass": 10.81,
    "electronegativity": 2.04,
    "ionizationEnergy": 800.6,
    "atomicRadius": 82,
    "electronAffinity": 26.9,
    "standardMolarEntropy": 5.86,
    "specificHeatCapacity": 1.026,
    "meltingPoint": 2077,
    "boilingPoint": 4185,
    "density": 2.34,
    "thermalConductivity": 27,
    "source": "NIST Chemistry WebBook 2024"
  },
  "iupac": {
    "atomicMass": 10.81,
    "electronegativity": 2.04,
    "ionizationEnergy": 800.6,
    "atomicRadius": 82,
    "electronAffinity": 26.9,
    "standardMolarEntropy": 5.86,
    "specificHeatCapacity": 1.026,
    "meltingPoint": 2077,
    "boilingPoint": 4185,
    "density": 2.34,
    "thermalConductivity": 27,
    "source": "IUPAC Periodic Table 2024"
  },
  "physicalProperties": {
    "phase": "solid",
    "appearance": "dark brown to black amorphous powder",
    "uses": [],
    "notes": "Element of the metalloid group"
  },
  "lastUpdated": "2026-01-27",
  "diffusion": {
    "atomicDiffusionVolume": 12,
    "unit": "dimensionless (cm³/mol conceptually)",
    "source": "Estimated",
    "note": "Estimated from atomic radius",
    "equation": "Fuller-Schettler-Giddings (1966)",
    "usage": "Sum atomic contributions for compound Σv, then: D_AB = 0.00143×T^1.75 / (P × M_AB^0.5 × (Σv_A^(1/3) + Σv_B^(1/3))²)"
  }
}
