{
  "atomicNumber": 6,
  "symbol": "C",
  "name": "Carbon",
  "elementCategory": "nonmetal",
  "chemicalBlock": "p",
  "valenceElectrons": 4,
  "oxidationStates": [
    4,
    2,
    -4
  ],
  "standardUsed": "iupac",
  "nist": {
    "atomicMass": 12.011,
    "electronegativity": 2.55,
    "ionizationEnergy": 1086.5,
    "atomicRadius": 70,
    "electronAffinity": 121.7,
    "standardMolarEntropy": 5.74,
    "specificHeatCapacity": 0.709,
    "meltingPoint": 3823,
    "boilingPoint": 4098,
    "density": 2.267,
    "thermalConductivity": 119,
    "source": "NIST Chemistry WebBook 2024"
  },
  "iupac": {
    "atomicMass": 12.011,
    "electronegativity": 2.55,
    "ionizationEnergy": 1086.5,
    "atomicRadius": 70,
    "electronAffinity": 121.7,
    "standardMolarEntropy": 5.74,
    "specificHeatCapacity": 0.709,
    "meltingPoint": 3823,
    "boilingPoint": 4098,
    "density": 2.267,
    "thermalConductivity": 119,
    "source": "IUPAC Periodic Table 2024"
  },
  "physicalProperties": {
    "phase": "solid",
    "appearance": "gray to black amorphous solid, graphite, diamond",
    "uses": [],
    "notes": "Element of the nonmetal group"
  },
  "lastUpdated": "2026-01-27",
  "educationalNotes": "The element of life - basis of all organic chemistry! Forms more compounds than any other element (>10 million known). Exists as graphite (pencil 'lead', soft), diamond (hardest natural material), graphene (strongest material known), and fullerenes (soccer-ball molecules). Plants use carbon dioxide + sunlight to make glucose (photosynthesis). Fossil fuels (coal, oil, gas) are ancient compressed carbon-rich organisms. Carbon-14 dating measures age of archaeological finds by radioactive decay (half-life 5,730 years).",
  "diffusion": {
    "atomicDiffusionVolume": 15.9,
    "unit": "dimensionless (cm³/mol conceptually)",
    "source": "Fuller 1966",
    "note": "Carbon - well characterized",
    "equation": "Fuller-Schettler-Giddings (1966)",
    "usage": "Sum atomic contributions for compound Σv, then: D_AB = 0.00143×T^1.75 / (P × M_AB^0.5 × (Σv_A^(1/3) + Σv_B^(1/3))²)"
  }
}
