{
  "atomicNumber": 8,
  "symbol": "O",
  "name": "Oxygen",
  "elementCategory": "nonmetal",
  "chemicalBlock": "p",
  "valenceElectrons": 6,
  "oxidationStates": [
    -2,
    -1,
    1,
    2
  ],
  "standardUsed": "iupac",
  "nist": {
    "atomicMass": 15.999,
    "electronegativity": 3.44,
    "ionizationEnergy": 1314,
    "atomicRadius": 60,
    "electronAffinity": 141,
    "standardMolarEntropy": 205.15,
    "specificHeatCapacity": 0.918,
    "meltingPoint": -218.79,
    "boilingPoint": -183,
    "density": 0.001429,
    "thermalConductivity": 0.0261,
    "source": "NIST Chemistry WebBook 2024"
  },
  "iupac": {
    "atomicMass": 15.999,
    "electronegativity": 3.44,
    "ionizationEnergy": 1314,
    "atomicRadius": 60,
    "electronAffinity": 141,
    "standardMolarEntropy": 205.15,
    "specificHeatCapacity": 0.918,
    "meltingPoint": -218.79,
    "boilingPoint": -183,
    "density": 0.001429,
    "thermalConductivity": 0.0261,
    "source": "IUPAC Periodic Table 2024"
  },
  "physicalProperties": {
    "phase": "gas",
    "appearance": "colorless gas",
    "uses": [],
    "notes": "Element of the nonmetal group"
  },
  "lastUpdated": "2026-01-27",
  "educationalNotes": "You breathe 550 liters of oxygen every day! Discovered in 1774 but Earth's early atmosphere had none - cyanobacteria produced it over billions of years (Great Oxygenation Event 2.4 billion years ago). Makes up 21% of air, 46% of Earth's crust (in rocks/minerals), and 65% of your body by mass. Supports fire - wood won't burn in pure nitrogen but blazes in pure oxygen. Liquid oxygen is pale blue, magnetic, and used as rocket fuel (paired with liquid hydrogen in space shuttles)."
}
