{
  "atomicNumber": 10,
  "symbol": "Ne",
  "name": "Neon",
  "elementCategory": "noble-gas",
  "chemicalBlock": "p",
  "valenceElectrons": 8,
  "oxidationStates": [],
  "standardUsed": "iupac",
  "nist": {
    "atomicMass": 20.18,
    "electronegativity": null,
    "ionizationEnergy": 2081,
    "atomicRadius": 38,
    "electronAffinity": 0,
    "standardMolarEntropy": 146.33,
    "specificHeatCapacity": 1.03,
    "meltingPoint": -248.59,
    "boilingPoint": -246.05,
    "density": 0.0009002,
    "thermalConductivity": 0.0491,
    "source": "NIST Chemistry WebBook 2024"
  },
  "iupac": {
    "atomicMass": 20.18,
    "electronegativity": null,
    "ionizationEnergy": 2081,
    "atomicRadius": 38,
    "electronAffinity": 0,
    "standardMolarEntropy": 146.33,
    "specificHeatCapacity": 1.03,
    "meltingPoint": -248.59,
    "boilingPoint": -246.05,
    "density": 0.0009002,
    "thermalConductivity": 0.0491,
    "source": "IUPAC Periodic Table 2024"
  },
  "physicalProperties": {
    "phase": "gas",
    "appearance": "colorless gas",
    "uses": [],
    "notes": "Element of the noble-gas group"
  },
  "lastUpdated": "2026-01-27",
  "educationalNotes": "Neon lights up in distinctive red/orange glow - iconic in Vegas signs and art! Inert noble gas that doesn't react with anything. Discovered in 1898. Neon is 24× more abundant than helium but rarer than you'd think. Liquid neon is used in cryogenic applications. Neon's glow comes from electrons jumping energy levels - same physics powers LEDs but neon predates them by decades. High-voltage electricity excites neon atoms, making them emit photons."
}
