{
  "atomicNumber": 11,
  "symbol": "Na",
  "name": "Sodium",
  "elementCategory": "alkali-metal",
  "chemicalBlock": "s",
  "valenceElectrons": 1,
  "oxidationStates": [
    1
  ],
  "standardUsed": "iupac",
  "nist": {
    "atomicMass": 22.99,
    "electronegativity": 0.93,
    "ionizationEnergy": 495.8,
    "atomicRadius": 186,
    "electronAffinity": 52.9,
    "standardMolarEntropy": 51.45,
    "specificHeatCapacity": 1.228,
    "meltingPoint": 97.72,
    "boilingPoint": 883,
    "density": 0.971,
    "thermalConductivity": 142,
    "source": "NIST Chemistry WebBook 2024"
  },
  "iupac": {
    "atomicMass": 22.99,
    "electronegativity": 0.93,
    "ionizationEnergy": 495.8,
    "atomicRadius": 186,
    "electronAffinity": 52.9,
    "standardMolarEntropy": 51.45,
    "specificHeatCapacity": 1.228,
    "meltingPoint": 97.72,
    "boilingPoint": 883,
    "density": 0.971,
    "thermalConductivity": 142,
    "source": "IUPAC Periodic Table 2024"
  },
  "physicalProperties": {
    "phase": "solid",
    "appearance": "soft, silvery metal",
    "uses": [],
    "notes": "Element of the alkali-metal group"
  },
  "lastUpdated": "2026-01-27",
  "educationalNotes": "Sodium metal reacts explosively with water - burns with yellow flame! Despite this, sodium ions (Na‚Å∫) are essential for nerve signals, muscle contraction, and blood pressure regulation. Discovered in 1807 by Humphry Davy through electrolysis. Table salt (NaCl) is ~39% sodium - too much sodium in diet increases heart disease risk. Sodium vapor lamps (street lights) emit characteristic yellow glow. Used in thermal energy storage systems and liquid metal reactor cooling."
}
