{
  "atomicNumber": 12,
  "symbol": "Mg",
  "name": "Magnesium",
  "elementCategory": "alkaline-earth-metal",
  "chemicalBlock": "s",
  "valenceElectrons": 2,
  "oxidationStates": [
    2
  ],
  "standardUsed": "iupac",
  "nist": {
    "atomicMass": 24.305,
    "electronegativity": 1.31,
    "ionizationEnergy": 738.1,
    "atomicRadius": 160,
    "electronAffinity": 0,
    "standardMolarEntropy": 32.68,
    "specificHeatCapacity": 1.023,
    "meltingPoint": 650,
    "boilingPoint": 1091,
    "density": 1.738,
    "thermalConductivity": 156,
    "source": "NIST Chemistry WebBook 2024"
  },
  "iupac": {
    "atomicMass": 24.305,
    "electronegativity": 1.31,
    "ionizationEnergy": 738.1,
    "atomicRadius": 160,
    "electronAffinity": 0,
    "standardMolarEntropy": 32.68,
    "specificHeatCapacity": 1.023,
    "meltingPoint": 650,
    "boilingPoint": 1091,
    "density": 1.738,
    "thermalConductivity": 156,
    "source": "IUPAC Periodic Table 2024"
  },
  "physicalProperties": {
    "phase": "solid",
    "appearance": "silvery-white metal",
    "uses": [],
    "notes": "Element of the alkaline-earth-metal group"
  },
  "lastUpdated": "2026-01-27",
  "educationalNotes": "Burns with brilliant white light - used in flashbulbs and fireworks! Lightest structural metal (used in airplane fuselages to reduce weight). Magnesium sulfate (Epsom salt) soaks relieve muscle aches. Chlorophyll (the green pigment in plants) has magnesium at its center - without it, photosynthesis fails and Earth would starve. Discovered in 1808. Magnesium batteries are being researched as safer alternatives to lithium-ion. Body needs ~400mg daily for muscle function."
}
