{
  "atomicNumber": 13,
  "symbol": "Al",
  "name": "Aluminum",
  "elementCategory": "post-transition-metal",
  "chemicalBlock": "p",
  "valenceElectrons": 3,
  "oxidationStates": [
    3
  ],
  "standardUsed": "iupac",
  "nist": {
    "atomicMass": 26.982,
    "electronegativity": 1.61,
    "ionizationEnergy": 577.5,
    "atomicRadius": 143,
    "electronAffinity": 42.5,
    "standardMolarEntropy": 28.33,
    "specificHeatCapacity": 0.897,
    "meltingPoint": 660.32,
    "boilingPoint": 2519,
    "density": 2.7,
    "thermalConductivity": 237,
    "source": "NIST Chemistry WebBook 2024"
  },
  "iupac": {
    "atomicMass": 26.982,
    "electronegativity": 1.61,
    "ionizationEnergy": 577.5,
    "atomicRadius": 143,
    "electronAffinity": 42.5,
    "standardMolarEntropy": 28.33,
    "specificHeatCapacity": 0.897,
    "meltingPoint": 660.32,
    "boilingPoint": 2519,
    "density": 2.7,
    "thermalConductivity": 237,
    "source": "IUPAC Periodic Table 2024"
  },
  "physicalProperties": {
    "phase": "solid",
    "appearance": "silvery-white metal",
    "uses": [],
    "notes": "Element of the post-transition-metal group"
  },
  "lastUpdated": "2026-01-27",
  "educationalNotes": "Most abundant metal in Earth's crust! Yet pure aluminum wasn't isolated until 1825 because it bonds so strongly to oxygen. Aluminum foil, cans, and aerospace components are ubiquitous. Aluminum oxide (corundum) forms rubies and sapphires (red and blue crystals). One problem: aluminum recycling takes 95% less energy than mining new ore, but only ~50% of aluminum is recycled. Aluminum reacts with oxygen to form a protective oxide layer - this is why aluminum doesn't rust like iron."
}
