{
  "atomicNumber": 14,
  "symbol": "Si",
  "name": "Silicon",
  "elementCategory": "metalloid",
  "chemicalBlock": "p",
  "valenceElectrons": 4,
  "oxidationStates": [
    4,
    -4
  ],
  "standardUsed": "iupac",
  "nist": {
    "atomicMass": 28.086,
    "electronegativity": 1.9,
    "ionizationEnergy": 786.5,
    "atomicRadius": 118,
    "electronAffinity": 134,
    "standardMolarEntropy": 18.81,
    "specificHeatCapacity": 0.705,
    "meltingPoint": 1414,
    "boilingPoint": 3265,
    "density": 2.329,
    "thermalConductivity": 149,
    "source": "NIST Chemistry WebBook 2024"
  },
  "iupac": {
    "atomicMass": 28.086,
    "electronegativity": 1.9,
    "ionizationEnergy": 786.5,
    "atomicRadius": 118,
    "electronAffinity": 134,
    "standardMolarEntropy": 18.81,
    "specificHeatCapacity": 0.705,
    "meltingPoint": 1414,
    "boilingPoint": 3265,
    "density": 2.329,
    "thermalConductivity": 149,
    "source": "IUPAC Periodic Table 2024"
  },
  "physicalProperties": {
    "phase": "solid",
    "appearance": "dark gray, shiny, brittle",
    "uses": [],
    "notes": "Element of the metalloid group"
  },
  "lastUpdated": "2026-01-27",
  "educationalNotes": "Silicon is the basis of computer chips - every smartphone has billions of transistors made from silicon! Second most abundant element in Earth's crust (26% after oxygen). Pure silicon is a semiconductor - conducts electricity only under certain conditions (basis of all modern electronics). Sand is mostly silicon dioxide (SiO₂). Silicon Valley is named because of its boom in silicon-based tech. Forms more compounds than any element except carbon.",
  "diffusion": {
    "atomicDiffusionVolume": 18,
    "unit": "dimensionless (cm³/mol conceptually)",
    "source": "Estimated",
    "note": "Silicon - estimated",
    "equation": "Fuller-Schettler-Giddings (1966)",
    "usage": "Sum atomic contributions for compound Σv, then: D_AB = 0.00143×T^1.75 / (P × M_AB^0.5 × (Σv_A^(1/3) + Σv_B^(1/3))²)"
  }
}
