{
  "atomicNumber": 15,
  "symbol": "P",
  "name": "Phosphorus",
  "elementCategory": "nonmetal",
  "chemicalBlock": "p",
  "valenceElectrons": 5,
  "oxidationStates": [
    5,
    3,
    -3
  ],
  "standardUsed": "iupac",
  "nist": {
    "atomicMass": 30.974,
    "electronegativity": 2.19,
    "ionizationEnergy": 1011.8,
    "atomicRadius": 107,
    "electronAffinity": 72.8,
    "standardMolarEntropy": 41.09,
    "specificHeatCapacity": 0.769,
    "meltingPoint": 44.15,
    "boilingPoint": 280.45,
    "density": 1.823,
    "thermalConductivity": 0.235,
    "source": "NIST Chemistry WebBook 2024"
  },
  "iupac": {
    "atomicMass": 30.974,
    "electronegativity": 2.19,
    "ionizationEnergy": 1011.8,
    "atomicRadius": 107,
    "electronAffinity": 72.8,
    "standardMolarEntropy": 41.09,
    "specificHeatCapacity": 0.769,
    "meltingPoint": 44.15,
    "boilingPoint": 280.45,
    "density": 1.823,
    "thermalConductivity": 0.235,
    "source": "IUPAC Periodic Table 2024"
  },
  "physicalProperties": {
    "phase": "solid",
    "appearance": "white, red, or black allotropes",
    "uses": [],
    "notes": "Element of the nonmetal group"
  },
  "lastUpdated": "2026-01-27",
  "educationalNotes": "Essential for life - DNA and ATP (energy molecules) contain phosphorus! Discovered in 1669 by phosphorescent glow. White phosphorus ignites spontaneously in air and produces thick white smoke (used in fireworks and military smoke screens). Red phosphorus is stable and used in safety matches and explosives. Phosphorus-32 is radioactive and used to label biological molecules in research. Fertilizers add phosphate - critical for global food production but causes water pollution (algal blooms)."
}
