{
  "atomicNumber": 16,
  "symbol": "S",
  "name": "Sulfur",
  "elementCategory": "nonmetal",
  "chemicalBlock": "p",
  "valenceElectrons": 6,
  "oxidationStates": [
    6,
    4,
    2,
    -2
  ],
  "standardUsed": "iupac",
  "nist": {
    "atomicMass": 32.06,
    "electronegativity": 2.58,
    "ionizationEnergy": 999.6,
    "atomicRadius": 105,
    "electronAffinity": 200.4,
    "standardMolarEntropy": 32.05,
    "specificHeatCapacity": 0.706,
    "meltingPoint": 115.21,
    "boilingPoint": 444.72,
    "density": 2.067,
    "thermalConductivity": 0.205,
    "source": "NIST Chemistry WebBook 2024"
  },
  "iupac": {
    "atomicMass": 32.06,
    "electronegativity": 2.58,
    "ionizationEnergy": 999.6,
    "atomicRadius": 105,
    "electronAffinity": 200.4,
    "standardMolarEntropy": 32.05,
    "specificHeatCapacity": 0.706,
    "meltingPoint": 115.21,
    "boilingPoint": 444.72,
    "density": 2.067,
    "thermalConductivity": 0.205,
    "source": "IUPAC Periodic Table 2024"
  },
  "physicalProperties": {
    "phase": "solid",
    "appearance": "yellow solid",
    "uses": [],
    "notes": "Element of the nonmetal group"
  },
  "lastUpdated": "2026-01-27",
  "educationalNotes": "Rotten eggs smell like hydrogen sulfide - one of sulfur's compounds! Sulfur burns with blue flame producing sulfur dioxide (SO₂). Discovered in ancient times; sulfuric acid (H₂SO₄) is the most-produced chemical globally - used in batteries, fertilizers, and metal processing. Vulcanization (heating rubber with sulfur) makes it strong and elastic - invented by Charles Goodyear. Some amino acids need sulfur. Sulfur deposits around hot springs and volcanoes form yellow crystals.",
  "diffusion": {
    "atomicDiffusionVolume": 22.9,
    "unit": "dimensionless (cm³/mol conceptually)",
    "source": "Fuller 1966",
    "note": "Sulfur - well characterized",
    "equation": "Fuller-Schettler-Giddings (1966)",
    "usage": "Sum atomic contributions for compound Σv, then: D_AB = 0.00143×T^1.75 / (P × M_AB^0.5 × (Σv_A^(1/3) + Σv_B^(1/3))²)"
  }
}
