{
  "atomicNumber": 17,
  "symbol": "Cl",
  "name": "Chlorine",
  "elementCategory": "halogen",
  "chemicalBlock": "p",
  "valenceElectrons": 7,
  "oxidationStates": [
    7,
    5,
    1,
    -1
  ],
  "standardUsed": "iupac",
  "nist": {
    "atomicMass": 35.45,
    "electronegativity": 3.16,
    "ionizationEnergy": 1251.2,
    "atomicRadius": 102,
    "electronAffinity": 349,
    "standardMolarEntropy": 223.08,
    "specificHeatCapacity": 0.479,
    "meltingPoint": -101.5,
    "boilingPoint": -34.04,
    "density": 0.003214,
    "thermalConductivity": 0.0089,
    "source": "NIST Chemistry WebBook 2024"
  },
  "iupac": {
    "atomicMass": 35.45,
    "electronegativity": 3.16,
    "ionizationEnergy": 1251.2,
    "atomicRadius": 102,
    "electronAffinity": 349,
    "standardMolarEntropy": 223.08,
    "specificHeatCapacity": 0.479,
    "meltingPoint": -101.5,
    "boilingPoint": -34.04,
    "density": 0.003214,
    "thermalConductivity": 0.0089,
    "source": "IUPAC Periodic Table 2024"
  },
  "physicalProperties": {
    "phase": "gas",
    "appearance": "yellowish-green gas",
    "uses": [],
    "notes": "Element of the halogen group"
  },
  "lastUpdated": "2026-01-27",
  "educationalNotes": "Chlorine gas (Cl₂) is greenish-yellow and toxic - killed thousands in WWI as a chemical weapon. Despite this, chlorine compounds are essential: table salt (NaCl), bleach (kills bacteria), and pool disinfectant. Chlorofluorocarbons (CFCs) with chlorine destroyed ozone layer, requiring Montreal Protocol ban. Chlorophyll isn't affected by chlorine despite the name. Chlorine is extracted from salt water by electrolysis - one of the largest industrial processes. Discovered in 1774.",
  "diffusion": {
    "atomicDiffusionVolume": 21,
    "unit": "dimensionless (cm³/mol conceptually)",
    "source": "Fuller 1966",
    "note": "Chlorine",
    "equation": "Fuller-Schettler-Giddings (1966)",
    "usage": "Sum atomic contributions for compound Σv, then: D_AB = 0.00143×T^1.75 / (P × M_AB^0.5 × (Σv_A^(1/3) + Σv_B^(1/3))²)"
  }
}
