{
  "atomicNumber": 19,
  "symbol": "K",
  "name": "Potassium",
  "elementCategory": "alkali-metal",
  "chemicalBlock": "s",
  "valenceElectrons": 1,
  "oxidationStates": [
    1
  ],
  "standardUsed": "iupac",
  "nist": {
    "atomicMass": 39.098,
    "electronegativity": 0.82,
    "ionizationEnergy": 418.8,
    "atomicRadius": 227,
    "electronAffinity": 48.4,
    "standardMolarEntropy": 64.18,
    "specificHeatCapacity": 0.757,
    "meltingPoint": 63.5,
    "boilingPoint": 759,
    "density": 0.862,
    "thermalConductivity": 100,
    "source": "NIST Chemistry WebBook 2024"
  },
  "iupac": {
    "atomicMass": 39.098,
    "electronegativity": 0.82,
    "ionizationEnergy": 418.8,
    "atomicRadius": 227,
    "electronAffinity": 48.4,
    "standardMolarEntropy": 64.18,
    "specificHeatCapacity": 0.757,
    "meltingPoint": 63.5,
    "boilingPoint": 759,
    "density": 0.862,
    "thermalConductivity": 100,
    "source": "IUPAC Periodic Table 2024"
  },
  "physicalProperties": {
    "phase": "solid",
    "appearance": "soft, silvery-white metal",
    "uses": [],
    "notes": "Element of the alkali-metal group"
  },
  "lastUpdated": "2026-01-27",
  "educationalNotes": "Potassium is critical for nerve signals and heart function - athletes drink sports drinks with K⁺ to replace losses. Bananas are famous for potassium (though yogurt has more per serving!). Potassium metal is silvery and must be stored under mineral oil because it reacts violently with air and water - burns with lilac flame. Discovered in 1807 by electrolysis. Potassium-40 is naturally radioactive and causes all humans and bananas to be slightly radioactive. Used in fertilizers.",
  "diffusion": {
    "atomicDiffusionVolume": 28.5,
    "unit": "dimensionless (cm³/mol conceptually)",
    "source": "Estimated",
    "note": "Estimated from atomic radius",
    "equation": "Fuller-Schettler-Giddings (1966)",
    "usage": "Sum atomic contributions for compound Σv, then: D_AB = 0.00143×T^1.75 / (P × M_AB^0.5 × (Σv_A^(1/3) + Σv_B^(1/3))²)"
  }
}
