{
  "atomicNumber": 20,
  "symbol": "Ca",
  "name": "Calcium",
  "elementCategory": "alkaline-earth-metal",
  "chemicalBlock": "s",
  "valenceElectrons": 2,
  "oxidationStates": [
    2
  ],
  "standardUsed": "iupac",
  "nist": {
    "atomicMass": 40.078,
    "electronegativity": 1,
    "ionizationEnergy": 589.8,
    "atomicRadius": 197,
    "electronAffinity": 0,
    "standardMolarEntropy": 41.59,
    "specificHeatCapacity": 0.647,
    "meltingPoint": 842,
    "boilingPoint": 1484,
    "density": 1.55,
    "thermalConductivity": 201,
    "source": "NIST Chemistry WebBook 2024"
  },
  "iupac": {
    "atomicMass": 40.078,
    "electronegativity": 1,
    "ionizationEnergy": 589.8,
    "atomicRadius": 197,
    "electronAffinity": 0,
    "standardMolarEntropy": 41.59,
    "specificHeatCapacity": 0.647,
    "meltingPoint": 842,
    "boilingPoint": 1484,
    "density": 1.55,
    "thermalConductivity": 201,
    "source": "IUPAC Periodic Table 2024"
  },
  "physicalProperties": {
    "phase": "solid",
    "appearance": "silvery-white metal",
    "uses": [],
    "notes": "Element of the alkaline-earth-metal group"
  },
  "lastUpdated": "2026-01-27",
  "educationalNotes": "Calcium forms your bones and teeth - your body contains ~1kg of calcium! Milk and dairy products are rich in Ca (important for growing children). Limestone (calcium carbonate) is used in construction, concrete, and as the main ingredient in chalk. Quicklime (calcium oxide) is produced by heating limestone - reacts with water to release heat (used in self-heating meal kits). Calcium-45 is radioactive isotope used in medical research. Soft water has less calcium than hard water.",
  "diffusion": {
    "atomicDiffusionVolume": 22,
    "unit": "dimensionless (cm³/mol conceptually)",
    "source": "Estimated",
    "note": "Estimated from atomic radius",
    "equation": "Fuller-Schettler-Giddings (1966)",
    "usage": "Sum atomic contributions for compound Σv, then: D_AB = 0.00143×T^1.75 / (P × M_AB^0.5 × (Σv_A^(1/3) + Σv_B^(1/3))²)"
  }
}
