{
  "atomicNumber": 21,
  "symbol": "Sc",
  "name": "Scandium",
  "elementCategory": "transition-metal",
  "chemicalBlock": "d",
  "valenceElectrons": 3,
  "oxidationStates": [
    3
  ],
  "standardUsed": "iupac",
  "nist": {
    "atomicMass": 44.956,
    "electronegativity": 1.36,
    "ionizationEnergy": 633.4,
    "atomicRadius": 184,
    "electronAffinity": 18.1,
    "standardMolarEntropy": 34.77,
    "specificHeatCapacity": 0.568,
    "meltingPoint": 1814,
    "boilingPoint": 3109,
    "density": 2.989,
    "thermalConductivity": 15.8,
    "source": "NIST Chemistry WebBook 2024"
  },
  "iupac": {
    "atomicMass": 44.956,
    "electronegativity": 1.36,
    "ionizationEnergy": 633.4,
    "atomicRadius": 184,
    "electronAffinity": 18.1,
    "standardMolarEntropy": 34.77,
    "specificHeatCapacity": 0.568,
    "meltingPoint": 1814,
    "boilingPoint": 3109,
    "density": 2.989,
    "thermalConductivity": 15.8,
    "source": "IUPAC Periodic Table 2024"
  },
  "physicalProperties": {
    "phase": "solid",
    "appearance": "silvery-gray metal",
    "uses": [],
    "notes": "Element of the transition-metal group"
  },
  "lastUpdated": "2026-01-27",
  "educationalNotes": "Scandium is rarely discussed but critical for aerospace and sports equipment! Light metal (similar density to aluminum) used in aluminum alloys for baseball bats and bicycle frames - 10% lighter and stronger. Discovered in 1879. Named after Scandinavia. Scandium-46 is radioactive and used in medical imaging. Less abundant than uranium despite higher atomic number. Used in high-intensity lamps for outdoor lighting."
}
