{
  "atomicNumber": 22,
  "symbol": "Ti",
  "name": "Titanium",
  "elementCategory": "transition-metal",
  "chemicalBlock": "d",
  "valenceElectrons": 4,
  "oxidationStates": [
    4,
    3,
    2
  ],
  "standardUsed": "iupac",
  "nist": {
    "atomicMass": 47.867,
    "electronegativity": 1.54,
    "ionizationEnergy": 658.8,
    "atomicRadius": 176,
    "electronAffinity": 7.6,
    "standardMolarEntropy": 30.76,
    "specificHeatCapacity": 0.523,
    "meltingPoint": 1941,
    "boilingPoint": 3560,
    "density": 4.506,
    "thermalConductivity": 21.9,
    "source": "NIST Chemistry WebBook 2024"
  },
  "iupac": {
    "atomicMass": 47.867,
    "electronegativity": 1.54,
    "ionizationEnergy": 658.8,
    "atomicRadius": 176,
    "electronAffinity": 7.6,
    "standardMolarEntropy": 30.76,
    "specificHeatCapacity": 0.523,
    "meltingPoint": 1941,
    "boilingPoint": 3560,
    "density": 4.506,
    "thermalConductivity": 21.9,
    "source": "IUPAC Periodic Table 2024"
  },
  "physicalProperties": {
    "phase": "solid",
    "appearance": "silver-gray metal",
    "uses": [],
    "notes": "Element of the transition-metal group"
  },
  "lastUpdated": "2026-01-27",
  "educationalNotes": "Titanium is stronger than steel but 45% lighter - used in aircraft, spacecraft, and prosthetic bones! Medical grade titanium doesn't trigger immune rejection, so it's used in joint replacements and dental implants. Discovered in 1791. Melting point 1,668°C (higher than steel). Titanium dioxide (TiO₂) is white pigment in paint and sunscreen. Military aircraft use titanium extensively - cost is 100× more than steel but weight savings justify it.",
  "diffusion": {
    "atomicDiffusionVolume": 18,
    "unit": "dimensionless (cm³/mol conceptually)",
    "source": "Estimated",
    "note": "Titanium - estimated",
    "equation": "Fuller-Schettler-Giddings (1966)",
    "usage": "Sum atomic contributions for compound Σv, then: D_AB = 0.00143×T^1.75 / (P × M_AB^0.5 × (Σv_A^(1/3) + Σv_B^(1/3))²)"
  }
}
