{
  "atomicNumber": 25,
  "symbol": "Mn",
  "name": "Manganese",
  "elementCategory": "transition-metal",
  "chemicalBlock": "d",
  "valenceElectrons": 7,
  "oxidationStates": [
    7,
    6,
    4,
    3,
    2
  ],
  "standardUsed": "iupac",
  "nist": {
    "atomicMass": 54.938,
    "electronegativity": 1.55,
    "ionizationEnergy": 717.3,
    "atomicRadius": 161,
    "electronAffinity": 0,
    "standardMolarEntropy": 32.01,
    "specificHeatCapacity": 0.479,
    "meltingPoint": 1246,
    "boilingPoint": 2061,
    "density": 7.47,
    "thermalConductivity": 7.8,
    "source": "NIST Chemistry WebBook 2024"
  },
  "iupac": {
    "atomicMass": 54.938,
    "electronegativity": 1.55,
    "ionizationEnergy": 717.3,
    "atomicRadius": 161,
    "electronAffinity": 0,
    "standardMolarEntropy": 32.01,
    "specificHeatCapacity": 0.479,
    "meltingPoint": 1246,
    "boilingPoint": 2061,
    "density": 7.47,
    "thermalConductivity": 7.8,
    "source": "IUPAC Periodic Table 2024"
  },
  "physicalProperties": {
    "phase": "solid",
    "appearance": "gray-white metal",
    "uses": [],
    "notes": "Element of the transition-metal group"
  },
  "lastUpdated": "2026-01-27",
  "educationalNotes": "Manganese is essential for plant and animal life - all organisms need it! Manganese dioxide (MnO₂) was used in early batteries (Leclanche cell, 1860s - basis of modern dry cells). Steel alloys with manganese are harder and more impact-resistant. Welding produces manganese-containing fumes - workers risk 'manganese madness' (neurological disease). Manganese deficiency causes bone disease in children. Discovered in 1774.",
  "diffusion": {
    "atomicDiffusionVolume": 16.5,
    "unit": "dimensionless (cm³/mol conceptually)",
    "source": "Estimated",
    "note": "Manganese - estimated",
    "equation": "Fuller-Schettler-Giddings (1966)",
    "usage": "Sum atomic contributions for compound Σv, then: D_AB = 0.00143×T^1.75 / (P × M_AB^0.5 × (Σv_A^(1/3) + Σv_B^(1/3))²)"
  }
}
