{
  "atomicNumber": 26,
  "symbol": "Fe",
  "name": "Iron",
  "elementCategory": "transition-metal",
  "chemicalBlock": "d",
  "valenceElectrons": 2,
  "oxidationStates": [
    6,
    5,
    4,
    3,
    2,
    -1,
    -2
  ],
  "standardUsed": "iupac",
  "nist": {
    "atomicMass": 55.845,
    "electronegativity": 1.83,
    "ionizationEnergy": 762.5,
    "atomicRadius": 124,
    "electronAffinity": 15.7,
    "standardMolarEntropy": 27.28,
    "specificHeatCapacity": 0.449,
    "meltingPoint": 1811,
    "boilingPoint": 3134,
    "density": 7.874,
    "thermalConductivity": 80.4,
    "source": "NIST Chemistry WebBook 2024"
  },
  "iupac": {
    "atomicMass": 55.845,
    "electronegativity": 1.83,
    "ionizationEnergy": 762.5,
    "atomicRadius": 124,
    "electronAffinity": 15.7,
    "standardMolarEntropy": 27.28,
    "specificHeatCapacity": 0.449,
    "meltingPoint": 1811,
    "boilingPoint": 3134,
    "density": 7.874,
    "thermalConductivity": 80.4,
    "source": "IUPAC Periodic Table 2024"
  },
  "physicalProperties": {
    "phase": "solid",
    "appearance": "lustrous metallic gray",
    "uses": [],
    "notes": "Element of the transition-metal group"
  },
  "lastUpdated": "2026-01-27",
  "educationalNotes": "Iron is the most common metal in Earth's crust and your blood! Hemoglobin protein carries oxygen using iron - without it, you'd be blue (and dead). Steel (iron + carbon) is the backbone of civilization - buildings, bridges, cars, tools. Iron oxidizes to form rust - a problem costing billions annually. Discovered in meteorites by ancient peoples (why iron has mythical significance). Earth's core is mostly iron. Dietary iron helps prevent anemia - red meat, spinach, and beans are good sources.",
  "diffusion": {
    "atomicDiffusionVolume": 15.5,
    "unit": "dimensionless (cm³/mol conceptually)",
    "source": "Estimated",
    "note": "Iron - estimated",
    "equation": "Fuller-Schettler-Giddings (1966)",
    "usage": "Sum atomic contributions for compound Σv, then: D_AB = 0.00143×T^1.75 / (P × M_AB^0.5 × (Σv_A^(1/3) + Σv_B^(1/3))²)"
  }
}
