{
  "atomicNumber": 27,
  "symbol": "Co",
  "name": "Cobalt",
  "elementCategory": "transition-metal",
  "chemicalBlock": "d",
  "valenceElectrons": 2,
  "oxidationStates": [
    2,
    3
  ],
  "standardUsed": "iupac",
  "nist": {
    "atomicMass": 58.933,
    "electronegativity": 1.88,
    "ionizationEnergy": 760.4,
    "atomicRadius": 126,
    "electronAffinity": 63.7,
    "standardMolarEntropy": 30.04,
    "specificHeatCapacity": 0.421,
    "meltingPoint": 1495,
    "boilingPoint": 2927,
    "density": 8.86,
    "thermalConductivity": 100,
    "source": "NIST Chemistry WebBook 2024"
  },
  "iupac": {
    "atomicMass": 58.933,
    "electronegativity": 1.88,
    "ionizationEnergy": 760.4,
    "atomicRadius": 126,
    "electronAffinity": 63.7,
    "standardMolarEntropy": 30.04,
    "specificHeatCapacity": 0.421,
    "meltingPoint": 1495,
    "boilingPoint": 2927,
    "density": 8.86,
    "thermalConductivity": 100,
    "source": "IUPAC Periodic Table 2024"
  },
  "physicalProperties": {
    "phase": "solid",
    "appearance": "hard, lustrous, silvery-blue metal",
    "uses": [],
    "notes": "Element of the transition-metal group"
  },
  "lastUpdated": "2026-01-27",
  "educationalNotes": "Cobalt is the blue color in ceramics and glass - medieval blue pottery used cobalt oxide! Cobalt-60 is radioactive isotope used in cancer radiotherapy and food sterilization. Cobalt-blue pigments remain vibrant for centuries - priceless in paintings. Vitamin B12 contains cobalt at its center - critical for nerve function and DNA synthesis. Cobalt mining is controversial (child labor in Congo). Ferromagnetism: cobalt magnets are incredibly strong.",
  "diffusion": {
    "atomicDiffusionVolume": 15,
    "unit": "dimensionless (cm³/mol conceptually)",
    "source": "Estimated",
    "note": "Cobalt - estimated",
    "equation": "Fuller-Schettler-Giddings (1966)",
    "usage": "Sum atomic contributions for compound Σv, then: D_AB = 0.00143×T^1.75 / (P × M_AB^0.5 × (Σv_A^(1/3) + Σv_B^(1/3))²)"
  }
}
