{
  "atomicNumber": 28,
  "symbol": "Ni",
  "name": "Nickel",
  "elementCategory": "transition-metal",
  "chemicalBlock": "d",
  "valenceElectrons": 2,
  "oxidationStates": [
    2,
    3
  ],
  "standardUsed": "iupac",
  "nist": {
    "atomicMass": 58.693,
    "electronegativity": 1.91,
    "ionizationEnergy": 737.1,
    "atomicRadius": 124,
    "electronAffinity": 111.5,
    "standardMolarEntropy": 29.87,
    "specificHeatCapacity": 0.444,
    "meltingPoint": 1455,
    "boilingPoint": 2913,
    "density": 8.908,
    "thermalConductivity": 90.7,
    "source": "NIST Chemistry WebBook 2024"
  },
  "iupac": {
    "atomicMass": 58.693,
    "electronegativity": 1.91,
    "ionizationEnergy": 737.1,
    "atomicRadius": 124,
    "electronAffinity": 111.5,
    "standardMolarEntropy": 29.87,
    "specificHeatCapacity": 0.444,
    "meltingPoint": 1455,
    "boilingPoint": 2913,
    "density": 8.908,
    "thermalConductivity": 90.7,
    "source": "IUPAC Periodic Table 2024"
  },
  "physicalProperties": {
    "phase": "solid",
    "appearance": "silvery-white metal",
    "uses": [],
    "notes": "Element of the transition-metal group"
  },
  "lastUpdated": "2026-01-27",
  "educationalNotes": "Nickel makes stainless steel stainless - without it, steel rusts! Nickel-cadmium batteries were first rechargeable batteries (now replaced by lithium). Nickel plating prevents corrosion - coins contain nickel (some people allergic to nickel earrings). Nickel-iron meteorites formed Earth's core. Thermal vents in the ocean have nickel-rich minerals. Nickel catalysts used in industrial hydrogenation (making margarine from oils)."
}
