{
  "atomicNumber": 32,
  "symbol": "Ge",
  "name": "Germanium",
  "elementCategory": "metalloid",
  "chemicalBlock": "p",
  "valenceElectrons": 4,
  "oxidationStates": [
    4,
    2
  ],
  "standardUsed": "iupac",
  "nist": {
    "atomicMass": 72.63,
    "electronegativity": 2.01,
    "ionizationEnergy": 762.2,
    "atomicRadius": 122,
    "electronAffinity": 119,
    "standardMolarEntropy": 31.09,
    "specificHeatCapacity": 0.32,
    "meltingPoint": 938.25,
    "boilingPoint": 2833,
    "density": 5.323,
    "thermalConductivity": 59.6,
    "source": "NIST Chemistry WebBook 2024"
  },
  "iupac": {
    "atomicMass": 72.63,
    "electronegativity": 2.01,
    "ionizationEnergy": 762.2,
    "atomicRadius": 122,
    "electronAffinity": 119,
    "standardMolarEntropy": 31.09,
    "specificHeatCapacity": 0.32,
    "meltingPoint": 938.25,
    "boilingPoint": 2833,
    "density": 5.323,
    "thermalConductivity": 59.6,
    "source": "IUPAC Periodic Table 2024"
  },
  "physicalProperties": {
    "phase": "solid",
    "appearance": "grayish-white hard metal",
    "uses": [],
    "notes": "Element of the metalloid group"
  },
  "lastUpdated": "2026-01-27",
  "educationalNotes": "Germanium was predicted by Mendeleev before discovery - showed the periodic table's power! First semiconductor used in transistors (1950s) before silicon took over. Germanium detectors sense radiation in nuclear physics. Optical fibers for internet use germanium compounds. Germanium dioxide used in catalysts and optical materials. Rare element - extracted as byproduct of zinc and copper mining. Similar properties to silicon but heavier."
}
