{
  "atomicNumber": 35,
  "symbol": "Br",
  "name": "Bromine",
  "elementCategory": "halogen",
  "chemicalBlock": "p",
  "valenceElectrons": 7,
  "oxidationStates": [
    7,
    5,
    1,
    -1
  ],
  "standardUsed": "iupac",
  "nist": {
    "atomicMass": 79.904,
    "electronegativity": 2.96,
    "ionizationEnergy": 1139.9,
    "atomicRadius": 120,
    "electronAffinity": 324.6,
    "standardMolarEntropy": 175.02,
    "specificHeatCapacity": 0.474,
    "meltingPoint": -7.2,
    "boilingPoint": 58.8,
    "density": 3.105,
    "thermalConductivity": 0.12,
    "source": "NIST Chemistry WebBook 2024"
  },
  "iupac": {
    "atomicMass": 79.904,
    "electronegativity": 2.96,
    "ionizationEnergy": 1139.9,
    "atomicRadius": 120,
    "electronAffinity": 324.6,
    "standardMolarEntropy": 175.02,
    "specificHeatCapacity": 0.474,
    "meltingPoint": -7.2,
    "boilingPoint": 58.8,
    "density": 3.105,
    "thermalConductivity": 0.12,
    "source": "IUPAC Periodic Table 2024"
  },
  "physicalProperties": {
    "phase": "liquid",
    "appearance": "reddish-brown liquid",
    "uses": [],
    "notes": "Element of the halogen group"
  },
  "lastUpdated": "2026-01-27",
  "educationalNotes": "Bromine is the only liquid element at room temperature (besides mercury) - orange liquid with acrid smell! One of rarest elements. Bromine bromide compounds used in photographic film (now declining with digital cameras). Flame retardants contain bromine - slows fire spread but some banned due to health concerns. Seawater contains bromide - extracted industrially. Bromine is toxic and corrosive - chemists respect it. Discovered in 1825.",
  "diffusion": {
    "atomicDiffusionVolume": 21.9,
    "unit": "dimensionless (cm³/mol conceptually)",
    "source": "Fuller 1966",
    "note": "Bromine",
    "equation": "Fuller-Schettler-Giddings (1966)",
    "usage": "Sum atomic contributions for compound Σv, then: D_AB = 0.00143×T^1.75 / (P × M_AB^0.5 × (Σv_A^(1/3) + Σv_B^(1/3))²)"
  }
}
