{
  "atomicNumber": 36,
  "symbol": "Kr",
  "name": "Krypton",
  "elementCategory": "noble-gas",
  "chemicalBlock": "p",
  "valenceElectrons": 8,
  "oxidationStates": [],
  "standardUsed": "iupac",
  "nist": {
    "atomicMass": 83.798,
    "electronegativity": null,
    "ionizationEnergy": 1350.8,
    "atomicRadius": 88,
    "electronAffinity": 0,
    "standardMolarEntropy": 164.09,
    "specificHeatCapacity": 0.248,
    "meltingPoint": -157.36,
    "boilingPoint": -153.22,
    "density": 0.003749,
    "thermalConductivity": 0.0094,
    "source": "NIST Chemistry WebBook 2024"
  },
  "iupac": {
    "atomicMass": 83.798,
    "electronegativity": null,
    "ionizationEnergy": 1350.8,
    "atomicRadius": 88,
    "electronAffinity": 0,
    "standardMolarEntropy": 164.09,
    "specificHeatCapacity": 0.248,
    "meltingPoint": -157.36,
    "boilingPoint": -153.22,
    "density": 0.003749,
    "thermalConductivity": 0.0094,
    "source": "IUPAC Periodic Table 2024"
  },
  "physicalProperties": {
    "phase": "gas",
    "appearance": "colorless gas",
    "uses": [],
    "notes": "Element of the noble-gas group"
  },
  "lastUpdated": "2026-01-27",
  "educationalNotes": "Krypton is inert noble gas - name means 'hidden' in Greek because so rare! Used in high-efficiency light bulbs (better than argon). Krypton-86 was used to define the meter's length (1960-1983) - showed element's precision. Krypton-85 is radioactive byproduct of nuclear reactors - leaks from weapons plants detected worldwide. Double-pane windows sometimes filled with krypton (more insulating than argon). Discovered in 1898 in air.",
  "diffusion": {
    "atomicDiffusionVolume": 24.5,
    "unit": "dimensionless (cm³/mol conceptually)",
    "source": "Fuller 1966",
    "note": "Krypton - noble gas, measured",
    "equation": "Fuller-Schettler-Giddings (1966)",
    "usage": "Sum atomic contributions for compound Σv, then: D_AB = 0.00143×T^1.75 / (P × M_AB^0.5 × (Σv_A^(1/3) + Σv_B^(1/3))²)"
  }
}
