{
  "atomicNumber": 38,
  "symbol": "Sr",
  "name": "Strontium",
  "elementCategory": "alkaline-earth-metal",
  "chemicalBlock": "s",
  "valenceElectrons": 2,
  "oxidationStates": [
    2
  ],
  "standardUsed": "iupac",
  "nist": {
    "atomicMass": 87.62,
    "electronegativity": 0.95,
    "ionizationEnergy": 549.5,
    "atomicRadius": 215,
    "electronAffinity": 0,
    "standardMolarEntropy": 55.69,
    "specificHeatCapacity": 0.301,
    "meltingPoint": 777,
    "boilingPoint": 1382,
    "density": 2.64,
    "thermalConductivity": 12.6,
    "source": "NIST Chemistry WebBook 2024"
  },
  "iupac": {
    "atomicMass": 87.62,
    "electronegativity": 0.95,
    "ionizationEnergy": 549.5,
    "atomicRadius": 215,
    "electronAffinity": 0,
    "standardMolarEntropy": 55.69,
    "specificHeatCapacity": 0.301,
    "meltingPoint": 777,
    "boilingPoint": 1382,
    "density": 2.64,
    "thermalConductivity": 12.6,
    "source": "IUPAC Periodic Table 2024"
  },
  "physicalProperties": {
    "phase": "solid",
    "appearance": "silvery-white metal",
    "uses": [],
    "notes": "Element of the alkaline-earth-metal group"
  },
  "lastUpdated": "2026-01-27",
  "educationalNotes": "Strontium burns with brilliant crimson flame - gives red color to fireworks! Strontium-90 is radioactive fission product of nuclear reactors - absorbed by bone (health hazard). Strontium compounds (strontium carbonate) produce red color in fireworks. Strontium ranelate is drug that strengthens bone (used for osteoporosis). Discovered in 1790. Celestite (strontium sulfate) is beautiful blue mineral. Strontium isotopes tracked by scientists to date geological samples."
}
