{
  "atomicNumber": 40,
  "symbol": "Zr",
  "name": "Zirconium",
  "elementCategory": "transition-metal",
  "chemicalBlock": "d",
  "valenceElectrons": 4,
  "oxidationStates": [
    4
  ],
  "standardUsed": "iupac",
  "nist": {
    "atomicMass": 91.224,
    "electronegativity": 1.33,
    "ionizationEnergy": 640.1,
    "atomicRadius": 206,
    "electronAffinity": 41.8,
    "standardMolarEntropy": 39.46,
    "specificHeatCapacity": 0.278,
    "meltingPoint": 1855,
    "boilingPoint": 4409,
    "density": 6.506,
    "thermalConductivity": 22.7,
    "source": "NIST Chemistry WebBook 2024"
  },
  "iupac": {
    "atomicMass": 91.224,
    "electronegativity": 1.33,
    "ionizationEnergy": 640.1,
    "atomicRadius": 206,
    "electronAffinity": 41.8,
    "standardMolarEntropy": 39.46,
    "specificHeatCapacity": 0.278,
    "meltingPoint": 1855,
    "boilingPoint": 4409,
    "density": 6.506,
    "thermalConductivity": 22.7,
    "source": "IUPAC Periodic Table 2024"
  },
  "physicalProperties": {
    "phase": "solid",
    "appearance": "silvery-white metal",
    "uses": [],
    "notes": "Element of the transition-metal group"
  },
  "lastUpdated": "2026-01-27",
  "educationalNotes": "Zirconium is used in nuclear reactor fuel cladding - resists radiation damage! Zirconia (zirconium oxide) is artificial diamond substitute in jewelry - chemically inert and brilliant. Zircon gemstone contains zirconium silicate (beautiful blue/golden/colorless). High melting point (2,128°C) makes it suitable for refractory ceramics. Zirconium aluminide coatings protect aircraft engines from heat. Discovered in 1789. Nuclear-grade zirconium must be >99.99% pure.",
  "diffusion": {
    "atomicDiffusionVolume": 20,
    "unit": "dimensionless (cm³/mol conceptually)",
    "source": "Estimated",
    "note": "Zirconium - estimated",
    "equation": "Fuller-Schettler-Giddings (1966)",
    "usage": "Sum atomic contributions for compound Σv, then: D_AB = 0.00143×T^1.75 / (P × M_AB^0.5 × (Σv_A^(1/3) + Σv_B^(1/3))²)"
  }
}
