{
  "atomicNumber": 42,
  "symbol": "Mo",
  "name": "Molybdenum",
  "elementCategory": "transition-metal",
  "chemicalBlock": "d",
  "valenceElectrons": 6,
  "oxidationStates": [
    6
  ],
  "standardUsed": "iupac",
  "nist": {
    "atomicMass": 95.95,
    "electronegativity": 2.16,
    "ionizationEnergy": 684.3,
    "atomicRadius": 193,
    "electronAffinity": 72,
    "standardMolarEntropy": 28.65,
    "specificHeatCapacity": 0.251,
    "meltingPoint": 2623,
    "boilingPoint": 4639,
    "density": 10.28,
    "thermalConductivity": 138.3,
    "source": "NIST Chemistry WebBook 2024"
  },
  "iupac": {
    "atomicMass": 95.95,
    "electronegativity": 2.16,
    "ionizationEnergy": 684.3,
    "atomicRadius": 193,
    "electronAffinity": 72,
    "standardMolarEntropy": 28.65,
    "specificHeatCapacity": 0.251,
    "meltingPoint": 2623,
    "boilingPoint": 4639,
    "density": 10.28,
    "thermalConductivity": 138.3,
    "source": "IUPAC Periodic Table 2024"
  },
  "physicalProperties": {
    "phase": "solid",
    "appearance": "gray-white metal",
    "uses": [],
    "notes": "Element of the transition-metal group"
  },
  "lastUpdated": "2026-01-27",
  "educationalNotes": "Molybdenum is essential trace element in humans - deficiency is rare but serious! Molybdenum enzymes break down purines and detoxify harmful compounds. Tool steel with molybdenum is extremely hard - used for drill bits and cutting tools. Molybdenum disulfide is dry lubricant (better than oil in many applications). High melting point (2,623°C) - used in furnaces. Molybdenum-99 produces medical imaging agent technetium-99m. X-ray tube anodes use molybdenum."
}
