{
  "atomicNumber": 45,
  "symbol": "Rh",
  "name": "Rhodium",
  "elementCategory": "transition-metal",
  "chemicalBlock": "d",
  "valenceElectrons": 9,
  "oxidationStates": [
    3
  ],
  "standardUsed": "iupac",
  "nist": {
    "atomicMass": 102.906,
    "electronegativity": 2.28,
    "ionizationEnergy": 719.7,
    "atomicRadius": 173,
    "electronAffinity": 110,
    "standardMolarEntropy": 24.98,
    "specificHeatCapacity": 0.244,
    "meltingPoint": 1966,
    "boilingPoint": 3727,
    "density": 12.41,
    "thermalConductivity": 150,
    "source": "NIST Chemistry WebBook 2024"
  },
  "iupac": {
    "atomicMass": 102.906,
    "electronegativity": 2.28,
    "ionizationEnergy": 719.7,
    "atomicRadius": 173,
    "electronAffinity": 110,
    "standardMolarEntropy": 24.98,
    "specificHeatCapacity": 0.244,
    "meltingPoint": 1966,
    "boilingPoint": 3727,
    "density": 12.41,
    "thermalConductivity": 150,
    "source": "IUPAC Periodic Table 2024"
  },
  "physicalProperties": {
    "phase": "solid",
    "appearance": "silvery-white metal",
    "uses": [],
    "notes": "Element of the transition-metal group"
  },
  "lastUpdated": "2026-01-27",
  "educationalNotes": "Rhodium is extremely rare precious metal - more expensive than gold by weight! Catalytic converters in cars use rhodium to reduce pollution. Rhodium-platinum alloys for high-temperature applications (jet engines). Rhodium chloride used in industrial catalysis. Mirror coatings use rhodium (reflects 95%+ light). Discovered in 1803. Named from Greek 'rhodon' meaning rose (of rose-red compounds). Highly resistant to corrosion and heat.",
  "diffusion": {
    "atomicDiffusionVolume": 16.5,
    "unit": "dimensionless (cm³/mol conceptually)",
    "source": "Estimated",
    "note": "Rhodium - estimated",
    "equation": "Fuller-Schettler-Giddings (1966)",
    "usage": "Sum atomic contributions for compound Σv, then: D_AB = 0.00143×T^1.75 / (P × M_AB^0.5 × (Σv_A^(1/3) + Σv_B^(1/3))²)"
  }
}
