{
  "atomicNumber": 46,
  "symbol": "Pd",
  "name": "Palladium",
  "elementCategory": "transition-metal",
  "chemicalBlock": "d",
  "valenceElectrons": 10,
  "oxidationStates": [
    2
  ],
  "standardUsed": "iupac",
  "nist": {
    "atomicMass": 106.42,
    "electronegativity": 2.2,
    "ionizationEnergy": 804.4,
    "atomicRadius": 169,
    "electronAffinity": 53.7,
    "standardMolarEntropy": 37.59,
    "specificHeatCapacity": 0.244,
    "meltingPoint": 1554.8,
    "boilingPoint": 2963,
    "density": 12.02,
    "thermalConductivity": 71.8,
    "source": "NIST Chemistry WebBook 2024"
  },
  "iupac": {
    "atomicMass": 106.42,
    "electronegativity": 2.2,
    "ionizationEnergy": 804.4,
    "atomicRadius": 169,
    "electronAffinity": 53.7,
    "standardMolarEntropy": 37.59,
    "specificHeatCapacity": 0.244,
    "meltingPoint": 1554.8,
    "boilingPoint": 2963,
    "density": 12.02,
    "thermalConductivity": 71.8,
    "source": "IUPAC Periodic Table 2024"
  },
  "physicalProperties": {
    "phase": "solid",
    "appearance": "silvery-white metal",
    "uses": [],
    "notes": "Element of the transition-metal group"
  },
  "lastUpdated": "2026-01-27",
  "educationalNotes": "Palladium is amazing catalyst - speeds up hydrogen addition to molecules! Car catalytic converters need palladium (cleaner than rhodium alone). Hydrogen can dissolve in palladium - once thought possible energy storage. Palladium jewelry is hypoallergenic alternative to gold. Palladium compounds used in organic chemistry reactions. Discovered in 1803. Named after asteroid Pallas. Supply from Russia/South Africa can create supply crunches.",
  "diffusion": {
    "atomicDiffusionVolume": 16,
    "unit": "dimensionless (cm³/mol conceptually)",
    "source": "Estimated",
    "note": "Palladium - estimated",
    "equation": "Fuller-Schettler-Giddings (1966)",
    "usage": "Sum atomic contributions for compound Σv, then: D_AB = 0.00143×T^1.75 / (P × M_AB^0.5 × (Σv_A^(1/3) + Σv_B^(1/3))²)"
  }
}
