{
  "atomicNumber": 47,
  "symbol": "Ag",
  "name": "Silver",
  "elementCategory": "transition-metal",
  "chemicalBlock": "d",
  "valenceElectrons": 1,
  "oxidationStates": [
    1
  ],
  "standardUsed": "iupac",
  "nist": {
    "atomicMass": 107.868,
    "electronegativity": 1.93,
    "ionizationEnergy": 731,
    "atomicRadius": 172,
    "electronAffinity": 125.6,
    "standardMolarEntropy": 42.55,
    "specificHeatCapacity": 0.235,
    "meltingPoint": 961.78,
    "boilingPoint": 2162,
    "density": 10.49,
    "thermalConductivity": 429,
    "source": "NIST Chemistry WebBook 2024"
  },
  "iupac": {
    "atomicMass": 107.868,
    "electronegativity": 1.93,
    "ionizationEnergy": 731,
    "atomicRadius": 172,
    "electronAffinity": 125.6,
    "standardMolarEntropy": 42.55,
    "specificHeatCapacity": 0.235,
    "meltingPoint": 961.78,
    "boilingPoint": 2162,
    "density": 10.49,
    "thermalConductivity": 429,
    "source": "IUPAC Periodic Table 2024"
  },
  "physicalProperties": {
    "phase": "solid",
    "appearance": "silvery-white metal",
    "uses": [],
    "notes": "Element of the transition-metal group"
  },
  "lastUpdated": "2026-01-27",
  "educationalNotes": "Silver is the best conductor of electricity and heat - but copper is cheaper so copper wires dominate. Silver has antibacterial properties - used in wound dressings and water filters. Mirrors use silver coating because it reflects 95% of light. Photography used silver halide (AgBr) in film - chemicals change with light exposure. Silver jewelry and tableware last centuries. Silver-110m is radioactive and used in medical imaging. Discovered and valued since ancient times.",
  "diffusion": {
    "atomicDiffusionVolume": 17,
    "unit": "dimensionless (cm³/mol conceptually)",
    "source": "Estimated",
    "note": "Silver - estimated",
    "equation": "Fuller-Schettler-Giddings (1966)",
    "usage": "Sum atomic contributions for compound Σv, then: D_AB = 0.00143×T^1.75 / (P × M_AB^0.5 × (Σv_A^(1/3) + Σv_B^(1/3))²)"
  }
}
