{
  "atomicNumber": 48,
  "symbol": "Cd",
  "name": "Cadmium",
  "elementCategory": "transition-metal",
  "chemicalBlock": "d",
  "valenceElectrons": 2,
  "oxidationStates": [
    2
  ],
  "standardUsed": "iupac",
  "nist": {
    "atomicMass": 112.411,
    "electronegativity": 1.69,
    "ionizationEnergy": 867.8,
    "atomicRadius": 144,
    "electronAffinity": 0,
    "standardMolarEntropy": 51.8,
    "specificHeatCapacity": 0.232,
    "meltingPoint": 321.07,
    "boilingPoint": 767,
    "density": 8.65,
    "thermalConductivity": 96.8,
    "source": "NIST Chemistry WebBook 2024"
  },
  "iupac": {
    "atomicMass": 112.411,
    "electronegativity": 1.69,
    "ionizationEnergy": 867.8,
    "atomicRadius": 144,
    "electronAffinity": 0,
    "standardMolarEntropy": 51.8,
    "specificHeatCapacity": 0.232,
    "meltingPoint": 321.07,
    "boilingPoint": 767,
    "density": 8.65,
    "thermalConductivity": 96.8,
    "source": "IUPAC Periodic Table 2024"
  },
  "physicalProperties": {
    "phase": "solid",
    "appearance": "silvery-white metal",
    "uses": [],
    "notes": "Element of the transition-metal group"
  },
  "lastUpdated": "2026-01-27",
  "educationalNotes": "Cadmium is toxic heavy metal - causes kidney disease and brittle bones! Cadmium-nickel batteries (now largely phased out for lithium). Cadmium sulfide bright yellow pigment in paint (now restricted). Cadmium exposure from smoking and industrial pollution. Accumulates in kidneys and liver. Banned in EU electronics. Yet cadmium telluride solar cells are efficient and cheap (concerns about recycling/disposal). Discovered in 1817.",
  "diffusion": {
    "atomicDiffusionVolume": 18,
    "unit": "dimensionless (cm³/mol conceptually)",
    "source": "Estimated",
    "note": "Cadmium - estimated",
    "equation": "Fuller-Schettler-Giddings (1966)",
    "usage": "Sum atomic contributions for compound Σv, then: D_AB = 0.00143×T^1.75 / (P × M_AB^0.5 × (Σv_A^(1/3) + Σv_B^(1/3))²)"
  }
}
