{
  "atomicNumber": 49,
  "symbol": "In",
  "name": "Indium",
  "elementCategory": "post-transition-metal",
  "chemicalBlock": "p",
  "valenceElectrons": 3,
  "oxidationStates": [
    3
  ],
  "standardUsed": "iupac",
  "nist": {
    "atomicMass": 114.818,
    "electronegativity": 1.78,
    "ionizationEnergy": 558.3,
    "atomicRadius": 167,
    "electronAffinity": 29,
    "standardMolarEntropy": 57.8,
    "specificHeatCapacity": 0.233,
    "meltingPoint": 156.6,
    "boilingPoint": 2072,
    "density": 7.31,
    "thermalConductivity": 81.8,
    "source": "NIST Chemistry WebBook 2024"
  },
  "iupac": {
    "atomicMass": 114.818,
    "electronegativity": 1.78,
    "ionizationEnergy": 558.3,
    "atomicRadius": 167,
    "electronAffinity": 29,
    "standardMolarEntropy": 57.8,
    "specificHeatCapacity": 0.233,
    "meltingPoint": 156.6,
    "boilingPoint": 2072,
    "density": 7.31,
    "thermalConductivity": 81.8,
    "source": "IUPAC Periodic Table 2024"
  },
  "physicalProperties": {
    "phase": "solid",
    "appearance": "silvery-white metal",
    "uses": [],
    "notes": "Element of the post-transition-metal group"
  },
  "lastUpdated": "2026-01-27",
  "educationalNotes": "Indium is rare silvery metal - tick-tock sound when bent (tin cry)! Indium tin oxide (ITO) is transparent electrode in touchscreens and solar cells - critical for all modern displays. Indium arsenide semiconductors used in infrared detectors. Very soft metal - indium foil easily dented. Discovered in 1863. Named after indigo color of spectral line. Supply comes mainly from zinc mining byproduct. High price due to rarity.",
  "diffusion": {
    "atomicDiffusionVolume": 24,
    "unit": "dimensionless (cm³/mol conceptually)",
    "source": "Estimated",
    "note": "Indium - estimated",
    "equation": "Fuller-Schettler-Giddings (1966)",
    "usage": "Sum atomic contributions for compound Σv, then: D_AB = 0.00143×T^1.75 / (P × M_AB^0.5 × (Σv_A^(1/3) + Σv_B^(1/3))²)"
  }
}
