{
  "atomicNumber": 50,
  "symbol": "Sn",
  "name": "Tin",
  "elementCategory": "post-transition-metal",
  "chemicalBlock": "p",
  "valenceElectrons": 4,
  "oxidationStates": [
    4,
    2
  ],
  "standardUsed": "iupac",
  "nist": {
    "atomicMass": 118.711,
    "electronegativity": 1.96,
    "ionizationEnergy": 708.6,
    "atomicRadius": 140,
    "electronAffinity": 107.3,
    "standardMolarEntropy": 51.18,
    "specificHeatCapacity": 0.227,
    "meltingPoint": 231.928,
    "boilingPoint": 2602,
    "density": 7.287,
    "thermalConductivity": 66.6,
    "source": "NIST Chemistry WebBook 2024"
  },
  "iupac": {
    "atomicMass": 118.711,
    "electronegativity": 1.96,
    "ionizationEnergy": 708.6,
    "atomicRadius": 140,
    "electronAffinity": 107.3,
    "standardMolarEntropy": 51.18,
    "specificHeatCapacity": 0.227,
    "meltingPoint": 231.928,
    "boilingPoint": 2602,
    "density": 7.287,
    "thermalConductivity": 66.6,
    "source": "IUPAC Periodic Table 2024"
  },
  "physicalProperties": {
    "phase": "solid",
    "appearance": "silvery-white metal",
    "uses": [],
    "notes": "Element of the post-transition-metal group"
  },
  "lastUpdated": "2026-01-27",
  "educationalNotes": "Tin is oldest metal worked by humans - bronze (tin + copper) started Bronze Age! Pewter (mostly tin) makes decorative items. Tin cans (steel coated with tin) preserve food. Solder (lead-tin alloy) joins electronic components - lead-free solder now standard. Tin oxide is white pigment. Tin whiskers: spontaneous whisker growth on tin coatings causes electronics failures. Discovered since ancient times. Two allotropes: white (conductive) and gray (nonconductive).",
  "diffusion": {
    "atomicDiffusionVolume": 26,
    "unit": "dimensionless (cm³/mol conceptually)",
    "source": "Estimated",
    "note": "Tin - estimated",
    "equation": "Fuller-Schettler-Giddings (1966)",
    "usage": "Sum atomic contributions for compound Σv, then: D_AB = 0.00143×T^1.75 / (P × M_AB^0.5 × (Σv_A^(1/3) + Σv_B^(1/3))²)"
  }
}
