{
  "atomicNumber": 51,
  "symbol": "Sb",
  "name": "Antimony",
  "elementCategory": "metalloid",
  "chemicalBlock": "p",
  "valenceElectrons": 5,
  "oxidationStates": [
    5,
    3,
    -3
  ],
  "standardUsed": "iupac",
  "nist": {
    "atomicMass": 121.76,
    "electronegativity": 2.05,
    "ionizationEnergy": 834,
    "atomicRadius": 133,
    "electronAffinity": 103.2,
    "standardMolarEntropy": 45.52,
    "specificHeatCapacity": 0.207,
    "meltingPoint": 630.74,
    "boilingPoint": 1587,
    "density": 6.691,
    "thermalConductivity": 24.4,
    "source": "NIST Chemistry WebBook 2024"
  },
  "iupac": {
    "atomicMass": 121.76,
    "electronegativity": 2.05,
    "ionizationEnergy": 834,
    "atomicRadius": 133,
    "electronAffinity": 103.2,
    "standardMolarEntropy": 45.52,
    "specificHeatCapacity": 0.207,
    "meltingPoint": 630.74,
    "boilingPoint": 1587,
    "density": 6.691,
    "thermalConductivity": 24.4,
    "source": "IUPAC Periodic Table 2024"
  },
  "physicalProperties": {
    "phase": "solid",
    "appearance": "gray, brittle solid",
    "uses": [],
    "notes": "Element of the metalloid group"
  },
  "lastUpdated": "2026-01-27",
  "educationalNotes": "Antimony is toxic element - used in flame retardants and old medicines! Antimony trioxide fire retardant slows burning (now restricted in some uses). Antimony compounds were used in ancient kohl eyeliner. Antimony telluride thermoelectric material converts heat to electricity. Antimony trisulfide is bright orange pigment. Battery alloys contain antimony for better charging. Discovered in ancient times. Named from Arabic 'stimmi'. Biased between metal and nonmetal properties."
}
