{
  "atomicNumber": 52,
  "symbol": "Te",
  "name": "Tellurium",
  "elementCategory": "metalloid",
  "chemicalBlock": "p",
  "valenceElectrons": 6,
  "oxidationStates": [
    6,
    4,
    -2
  ],
  "standardUsed": "iupac",
  "nist": {
    "atomicMass": 127.6,
    "electronegativity": 2.1,
    "ionizationEnergy": 869.3,
    "atomicRadius": 140,
    "electronAffinity": 190.2,
    "standardMolarEntropy": 49.71,
    "specificHeatCapacity": 0.202,
    "meltingPoint": 449.51,
    "boilingPoint": 989.8,
    "density": 6.232,
    "thermalConductivity": 2.4,
    "source": "NIST Chemistry WebBook 2024"
  },
  "iupac": {
    "atomicMass": 127.6,
    "electronegativity": 2.1,
    "ionizationEnergy": 869.3,
    "atomicRadius": 140,
    "electronAffinity": 190.2,
    "standardMolarEntropy": 49.71,
    "specificHeatCapacity": 0.202,
    "meltingPoint": 449.51,
    "boilingPoint": 989.8,
    "density": 6.232,
    "thermalConductivity": 2.4,
    "source": "IUPAC Periodic Table 2024"
  },
  "physicalProperties": {
    "phase": "solid",
    "appearance": "silvery-white brittle solid",
    "uses": [],
    "notes": "Element of the metalloid group"
  },
  "lastUpdated": "2026-01-27",
  "educationalNotes": "Tellurium is rare metalloid - selenium's heavier cousin! Tellurium dioxide used in optical fibers for telecommunications. Cadmium telluride solar cells are efficient photovoltaics. Tellurium alloys strengthen steel and copper wires. Tellurium compounds have garlic smell - tellurium breath odor lasts weeks! Discovered in 1782. Produced as byproduct of copper/gold mining. High refractive index used in lenses. Brittle crystalline element with metallic luster.",
  "diffusion": {
    "atomicDiffusionVolume": 28,
    "unit": "dimensionless (cm³/mol conceptually)",
    "source": "Estimated",
    "note": "Tellurium - estimated",
    "equation": "Fuller-Schettler-Giddings (1966)",
    "usage": "Sum atomic contributions for compound Σv, then: D_AB = 0.00143×T^1.75 / (P × M_AB^0.5 × (Σv_A^(1/3) + Σv_B^(1/3))²)"
  }
}
