{
  "atomicNumber": 53,
  "symbol": "I",
  "name": "Iodine",
  "elementCategory": "halogen",
  "chemicalBlock": "p",
  "valenceElectrons": 7,
  "oxidationStates": [
    7,
    5,
    1,
    -1
  ],
  "standardUsed": "iupac",
  "nist": {
    "atomicMass": 126.904,
    "electronegativity": 2.66,
    "ionizationEnergy": 1008.4,
    "atomicRadius": 133,
    "electronAffinity": 295.4,
    "standardMolarEntropy": 116.14,
    "specificHeatCapacity": 0.214,
    "meltingPoint": 113.7,
    "boilingPoint": 184.4,
    "density": 4.933,
    "thermalConductivity": 0.438,
    "source": "NIST Chemistry WebBook 2024"
  },
  "iupac": {
    "atomicMass": 126.904,
    "electronegativity": 2.66,
    "ionizationEnergy": 1008.4,
    "atomicRadius": 133,
    "electronAffinity": 295.4,
    "standardMolarEntropy": 116.14,
    "specificHeatCapacity": 0.214,
    "meltingPoint": 113.7,
    "boilingPoint": 184.4,
    "density": 4.933,
    "thermalConductivity": 0.438,
    "source": "IUPAC Periodic Table 2024"
  },
  "physicalProperties": {
    "phase": "solid",
    "appearance": "dark gray shiny solid",
    "uses": [],
    "notes": "Element of the halogen group"
  },
  "lastUpdated": "2026-01-27",
  "educationalNotes": "Iodine is essential for thyroid function - your thyroid gland produces hormones regulating metabolism. Iodine deficiency causes goiter (swollen thyroid) and brain damage in children - adding iodine to salt prevented this in developed countries. Iodine-131 is radioactive product of nuclear reactors - accumulates in thyroid after releases (Chernobyl, Fukushima). Iodine solution is used as disinfectant for wounds. Purple iodine vapor is used in security marking (appears when pressure applied). Discovered in 1811.",
  "diffusion": {
    "atomicDiffusionVolume": 29.8,
    "unit": "dimensionless (cm³/mol conceptually)",
    "source": "Reid 1987",
    "note": "Iodine",
    "equation": "Fuller-Schettler-Giddings (1966)",
    "usage": "Sum atomic contributions for compound Σv, then: D_AB = 0.00143×T^1.75 / (P × M_AB^0.5 × (Σv_A^(1/3) + Σv_B^(1/3))²)"
  }
}
