{
  "atomicNumber": 54,
  "symbol": "Xe",
  "name": "Xenon",
  "elementCategory": "noble-gas",
  "chemicalBlock": "p",
  "valenceElectrons": 8,
  "oxidationStates": [],
  "standardUsed": "iupac",
  "nist": {
    "atomicMass": 131.293,
    "electronegativity": null,
    "ionizationEnergy": 1170.4,
    "atomicRadius": 108,
    "electronAffinity": 0,
    "standardMolarEntropy": 169.68,
    "specificHeatCapacity": 0.158,
    "meltingPoint": -111.75,
    "boilingPoint": -108.12,
    "density": 0.005894,
    "thermalConductivity": 0.00565,
    "source": "NIST Chemistry WebBook 2024"
  },
  "iupac": {
    "atomicMass": 131.293,
    "electronegativity": null,
    "ionizationEnergy": 1170.4,
    "atomicRadius": 108,
    "electronAffinity": 0,
    "standardMolarEntropy": 169.68,
    "specificHeatCapacity": 0.158,
    "meltingPoint": -111.75,
    "boilingPoint": -108.12,
    "density": 0.005894,
    "thermalConductivity": 0.00565,
    "source": "IUPAC Periodic Table 2024"
  },
  "physicalProperties": {
    "phase": "gas",
    "appearance": "colorless gas",
    "uses": [],
    "notes": "Element of the noble-gas group"
  },
  "lastUpdated": "2026-01-27",
  "educationalNotes": "Xenon is noble gas - element's electrons so tightly bound it doesn't react! Yet xenon fluoride compounds exist under extreme pressure. Xenon arc lamps produce bright white light (used in cinema projectors). Xenon anesthetic is safer than halothane for some surgeries. Xenon-135 poisons nuclear reactors (absorbs neutrons). Xenon is rare - extracted from air after nitrogen/oxygen/argon removed. Discovered in 1898. Most expensive noble gas.",
  "diffusion": {
    "atomicDiffusionVolume": 32.7,
    "unit": "dimensionless (cm³/mol conceptually)",
    "source": "Fuller 1966",
    "note": "Xenon - noble gas, measured",
    "equation": "Fuller-Schettler-Giddings (1966)",
    "usage": "Sum atomic contributions for compound Σv, then: D_AB = 0.00143×T^1.75 / (P × M_AB^0.5 × (Σv_A^(1/3) + Σv_B^(1/3))²)"
  }
}
