{
  "atomicNumber": 55,
  "symbol": "Cs",
  "name": "Cesium",
  "elementCategory": "alkali-metal",
  "chemicalBlock": "s",
  "valenceElectrons": 1,
  "oxidationStates": [
    1
  ],
  "standardUsed": "iupac",
  "nist": {
    "atomicMass": 132.906,
    "electronegativity": 0.79,
    "ionizationEnergy": 375.7,
    "atomicRadius": 265,
    "electronAffinity": 45.5,
    "standardMolarEntropy": 85.23,
    "specificHeatCapacity": 0.242,
    "meltingPoint": 28.5,
    "boilingPoint": 671,
    "density": 1.873,
    "thermalConductivity": 36,
    "source": "NIST Chemistry WebBook 2024"
  },
  "iupac": {
    "atomicMass": 132.906,
    "electronegativity": 0.79,
    "ionizationEnergy": 375.7,
    "atomicRadius": 265,
    "electronAffinity": 45.5,
    "standardMolarEntropy": 85.23,
    "specificHeatCapacity": 0.242,
    "meltingPoint": 28.5,
    "boilingPoint": 671,
    "density": 1.873,
    "thermalConductivity": 36,
    "source": "IUPAC Periodic Table 2024"
  },
  "physicalProperties": {
    "phase": "solid",
    "appearance": "soft, silvery-white metal",
    "uses": [],
    "notes": "Element of the alkali-metal group"
  },
  "lastUpdated": "2026-01-27",
  "educationalNotes": "Cesium is the most electropositive element - reacts explosively with water! Burning cesium burns brilliant blue/violet. Cesium-137 is radioactive fission product (Chernobyl contamination). Cesium atomic clock is world's primary time standard - defines the second. Cesium formate used as drilling fluid in oil/gas wells. Discovered in 1860 via spectroscopy. Named from Latin 'caesius' (sky blue). Liquid near room temperature (melts at 28.4°C).",
  "diffusion": {
    "atomicDiffusionVolume": 42,
    "unit": "dimensionless (cm³/mol conceptually)",
    "source": "Estimated",
    "note": "Estimated from atomic radius",
    "equation": "Fuller-Schettler-Giddings (1966)",
    "usage": "Sum atomic contributions for compound Σv, then: D_AB = 0.00143×T^1.75 / (P × M_AB^0.5 × (Σv_A^(1/3) + Σv_B^(1/3))²)"
  }
}
