{
  "atomicNumber": 56,
  "symbol": "Ba",
  "name": "Barium",
  "elementCategory": "alkaline-earth-metal",
  "chemicalBlock": "s",
  "valenceElectrons": 2,
  "oxidationStates": [
    2
  ],
  "standardUsed": "iupac",
  "nist": {
    "atomicMass": 137.327,
    "electronegativity": 0.89,
    "ionizationEnergy": 502.9,
    "atomicRadius": 222,
    "electronAffinity": 0,
    "standardMolarEntropy": 62.42,
    "specificHeatCapacity": 0.204,
    "meltingPoint": 727,
    "boilingPoint": 1897,
    "density": 3.594,
    "thermalConductivity": 18.4,
    "source": "NIST Chemistry WebBook 2024"
  },
  "iupac": {
    "atomicMass": 137.327,
    "electronegativity": 0.89,
    "ionizationEnergy": 502.9,
    "atomicRadius": 222,
    "electronAffinity": 0,
    "standardMolarEntropy": 62.42,
    "specificHeatCapacity": 0.204,
    "meltingPoint": 727,
    "boilingPoint": 1897,
    "density": 3.594,
    "thermalConductivity": 18.4,
    "source": "IUPAC Periodic Table 2024"
  },
  "physicalProperties": {
    "phase": "solid",
    "appearance": "silvery-white metal",
    "uses": [],
    "notes": "Element of the alkaline-earth-metal group"
  },
  "lastUpdated": "2026-01-27",
  "educationalNotes": "Barium compounds glow under UV light - used in old radar screens and X-ray imaging! Barium sulfate (insoluble) swallowed for GI tract X-rays - shows digestive system clearly. Barium carbonate used in glassmaking and ceramics. Barium peroxide releases oxygen when heated. Barium is highly reactive alkali earth metal. Discovered in 1808. Soluble barium salts are toxic - cause severe poisoning. Barytes (barium sulfate mineral) extremely dense - used as drilling mud."
}
