{
  "atomicNumber": 57,
  "symbol": "La",
  "name": "Lanthanum",
  "elementCategory": "lanthanide",
  "chemicalBlock": "f",
  "valenceElectrons": 3,
  "oxidationStates": [
    3
  ],
  "standardUsed": "iupac",
  "nist": {
    "atomicMass": 138.905,
    "electronegativity": 1.1,
    "ionizationEnergy": 538.1,
    "atomicRadius": 240,
    "electronAffinity": 48,
    "standardMolarEntropy": 56.86,
    "specificHeatCapacity": 0.195,
    "meltingPoint": 920,
    "boilingPoint": 3464,
    "density": 6.145,
    "thermalConductivity": 13.4,
    "source": "NIST Chemistry WebBook 2024"
  },
  "iupac": {
    "atomicMass": 138.905,
    "electronegativity": 1.1,
    "ionizationEnergy": 538.1,
    "atomicRadius": 240,
    "electronAffinity": 48,
    "standardMolarEntropy": 56.86,
    "specificHeatCapacity": 0.195,
    "meltingPoint": 920,
    "boilingPoint": 3464,
    "density": 6.145,
    "thermalConductivity": 13.4,
    "source": "IUPAC Periodic Table 2024"
  },
  "physicalProperties": {
    "phase": "solid",
    "appearance": "silvery-white metal",
    "uses": [],
    "notes": "Element of the lanthanide group"
  },
  "lastUpdated": "2026-01-27",
  "educationalNotes": "Lanthanum starts the rare earth element series! Lanthanum oxide used in camera lenses (high refractive index). Lanthanum nickel metal hydride batteries power hybrid cars. Mischmetal (lanthanum-cerium mixture) ignites spark plugs. La-Mg alloys are super-strong and lightweight. Rare earth magnets contain lanthanum. Discovered in 1839. Despite 'rare' name, more abundant than tin/lead. Lanthanum carbide is hard ceramic material.",
  "diffusion": {
    "atomicDiffusionVolume": 28,
    "unit": "dimensionless (cm³/mol conceptually)",
    "source": "Estimated",
    "note": "Lanthanum - lanthanide estimate",
    "equation": "Fuller-Schettler-Giddings (1966)",
    "usage": "Sum atomic contributions for compound Σv, then: D_AB = 0.00143×T^1.75 / (P × M_AB^0.5 × (Σv_A^(1/3) + Σv_B^(1/3))²)"
  }
}
