{
  "atomicNumber": 58,
  "symbol": "Ce",
  "name": "Cerium",
  "elementCategory": "lanthanide",
  "chemicalBlock": "f",
  "valenceElectrons": 3,
  "oxidationStates": [
    4,
    3
  ],
  "standardUsed": "iupac",
  "nist": {
    "atomicMass": 140.116,
    "electronegativity": 1.12,
    "ionizationEnergy": 534.4,
    "atomicRadius": 237,
    "electronAffinity": 50,
    "standardMolarEntropy": 72,
    "specificHeatCapacity": 0.192,
    "meltingPoint": 798,
    "boilingPoint": 3443,
    "density": 6.77,
    "thermalConductivity": 11.4,
    "source": "NIST Chemistry WebBook 2024"
  },
  "iupac": {
    "atomicMass": 140.116,
    "electronegativity": 1.12,
    "ionizationEnergy": 534.4,
    "atomicRadius": 237,
    "electronAffinity": 50,
    "standardMolarEntropy": 72,
    "specificHeatCapacity": 0.192,
    "meltingPoint": 798,
    "boilingPoint": 3443,
    "density": 6.77,
    "thermalConductivity": 11.4,
    "source": "IUPAC Periodic Table 2024"
  },
  "physicalProperties": {
    "phase": "solid",
    "appearance": "silvery-white metal",
    "uses": [],
    "notes": "Element of the lanthanide group"
  },
  "lastUpdated": "2026-01-27",
  "educationalNotes": "Cerium is most abundant rare earth element - more plentiful than copper! Cerium oxide is polishing powder for fine optical surfaces (removes scratches). Catalytic converters use cerium oxide to reduce emissions. Cerium-140 used in research. Mischmetal (cerium alloy) makes lighter flints. Cerium fluoride used in arc lamps. Oil industry uses cerium as catalyst. Discovered in 1803 (predicted by Mendeleev). Cost varies wildly with rare earth market.",
  "diffusion": {
    "atomicDiffusionVolume": 27.5,
    "unit": "dimensionless (cm³/mol conceptually)",
    "source": "Estimated",
    "note": "Cerium - lanthanide estimate",
    "equation": "Fuller-Schettler-Giddings (1966)",
    "usage": "Sum atomic contributions for compound Σv, then: D_AB = 0.00143×T^1.75 / (P × M_AB^0.5 × (Σv_A^(1/3) + Σv_B^(1/3))²)"
  }
}
