{
  "atomicNumber": 59,
  "symbol": "Pr",
  "name": "Praseodymium",
  "elementCategory": "lanthanide",
  "chemicalBlock": "f",
  "valenceElectrons": 3,
  "oxidationStates": [
    4,
    3
  ],
  "standardUsed": "iupac",
  "nist": {
    "atomicMass": 140.908,
    "electronegativity": 1.13,
    "ionizationEnergy": 527,
    "atomicRadius": 239,
    "electronAffinity": 50,
    "standardMolarEntropy": 73.24,
    "specificHeatCapacity": 0.193,
    "meltingPoint": 931,
    "boilingPoint": 3520,
    "density": 6.773,
    "thermalConductivity": 12.5,
    "source": "NIST Chemistry WebBook 2024"
  },
  "iupac": {
    "atomicMass": 140.908,
    "electronegativity": 1.13,
    "ionizationEnergy": 527,
    "atomicRadius": 239,
    "electronAffinity": 50,
    "standardMolarEntropy": 73.24,
    "specificHeatCapacity": 0.193,
    "meltingPoint": 931,
    "boilingPoint": 3520,
    "density": 6.773,
    "thermalConductivity": 12.5,
    "source": "IUPAC Periodic Table 2024"
  },
  "physicalProperties": {
    "phase": "solid",
    "appearance": "silvery-white metal",
    "uses": [],
    "notes": "Element of the lanthanide group"
  },
  "lastUpdated": "2026-01-27",
  "educationalNotes": "Praseodymium is rare earth with unique properties - 'green' of rare earth magnets! Praseodymium alloys with nickel make super-strong permanent magnets. Praseodymium oxide used in coloring glass and ceramics (yellow/green tones). Discovered in 1885. Named from Greek 'prasios' (green) and 'didymos' (twin). Critical for modern electronics and renewable energy (wind turbines). Supply concentrated in China (geopolitical concern). High price volatility.",
  "diffusion": {
    "atomicDiffusionVolume": 27,
    "unit": "dimensionless (cm³/mol conceptually)",
    "source": "Estimated",
    "note": "Praseodymium - lanthanide estimate",
    "equation": "Fuller-Schettler-Giddings (1966)",
    "usage": "Sum atomic contributions for compound Σv, then: D_AB = 0.00143×T^1.75 / (P × M_AB^0.5 × (Σv_A^(1/3) + Σv_B^(1/3))²)"
  }
}
