{
  "atomicNumber": 60,
  "symbol": "Nd",
  "name": "Neodymium",
  "elementCategory": "lanthanide",
  "chemicalBlock": "f",
  "valenceElectrons": 3,
  "oxidationStates": [
    3
  ],
  "standardUsed": "iupac",
  "nist": {
    "atomicMass": 144.242,
    "electronegativity": 1.14,
    "ionizationEnergy": 533,
    "atomicRadius": 229,
    "electronAffinity": 50,
    "standardMolarEntropy": 71.5,
    "specificHeatCapacity": 0.19,
    "meltingPoint": 1021,
    "boilingPoint": 3074,
    "density": 7.008,
    "thermalConductivity": 16.5,
    "source": "NIST Chemistry WebBook 2024"
  },
  "iupac": {
    "atomicMass": 144.242,
    "electronegativity": 1.14,
    "ionizationEnergy": 533,
    "atomicRadius": 229,
    "electronAffinity": 50,
    "standardMolarEntropy": 71.5,
    "specificHeatCapacity": 0.19,
    "meltingPoint": 1021,
    "boilingPoint": 3074,
    "density": 7.008,
    "thermalConductivity": 16.5,
    "source": "IUPAC Periodic Table 2024"
  },
  "physicalProperties": {
    "phase": "solid",
    "appearance": "silvery-white metal",
    "uses": [],
    "notes": "Element of the lanthanide group"
  },
  "lastUpdated": "2026-01-27",
  "educationalNotes": "Neodymium is essential for strong permanent magnets - your headphones likely contain neodymium! Nd-Fe-B magnets are strongest permanent magnets known - used in electric car motors, wind turbines, hard drives. Neodymium laser used in surgery and industry. Discovered in 1885. Neodymium oxide gives purple color to glass. China controls 90% of neodymium supply - creates supply chain vulnerability. Critical element for green energy transition.",
  "diffusion": {
    "atomicDiffusionVolume": 26.5,
    "unit": "dimensionless (cm³/mol conceptually)",
    "source": "Estimated",
    "note": "Neodymium - lanthanide estimate",
    "equation": "Fuller-Schettler-Giddings (1966)",
    "usage": "Sum atomic contributions for compound Σv, then: D_AB = 0.00143×T^1.75 / (P × M_AB^0.5 × (Σv_A^(1/3) + Σv_B^(1/3))²)"
  }
}
