{
  "atomicNumber": 62,
  "symbol": "Sm",
  "name": "Samarium",
  "elementCategory": "lanthanide",
  "chemicalBlock": "f",
  "valenceElectrons": 3,
  "oxidationStates": [
    3
  ],
  "standardUsed": "iupac",
  "nist": {
    "atomicMass": 150.36,
    "electronegativity": 1.17,
    "ionizationEnergy": 544.5,
    "atomicRadius": 226,
    "electronAffinity": 50,
    "standardMolarEntropy": 69.6,
    "specificHeatCapacity": 0.196,
    "meltingPoint": 1072,
    "boilingPoint": 1900,
    "density": 7.52,
    "thermalConductivity": 13.3,
    "source": "NIST Chemistry WebBook 2024"
  },
  "iupac": {
    "atomicMass": 150.36,
    "electronegativity": 1.17,
    "ionizationEnergy": 544.5,
    "atomicRadius": 226,
    "electronAffinity": 50,
    "standardMolarEntropy": 69.6,
    "specificHeatCapacity": 0.196,
    "meltingPoint": 1072,
    "boilingPoint": 1900,
    "density": 7.52,
    "thermalConductivity": 13.3,
    "source": "IUPAC Periodic Table 2024"
  },
  "physicalProperties": {
    "phase": "solid",
    "appearance": "silvery-white metal",
    "uses": [],
    "notes": "Element of the lanthanide group"
  },
  "lastUpdated": "2026-01-27",
  "educationalNotes": "Samarium cobalt magnets are incredibly strong and temperature-stable! Samarium-cobalt used in military applications (jets, satellites). Samarium-153 is nuclear medicine isotope for bone pain. Samarium oxide used in optical coatings. Laser with samarium ions operates at infrared wavelengths. Discovered in 1879. Named after mineral samarskite. Samarium monopnictides have interesting magnetic properties. Used in high-temperature applications.",
  "diffusion": {
    "atomicDiffusionVolume": 25.5,
    "unit": "dimensionless (cm³/mol conceptually)",
    "source": "Estimated",
    "note": "Samarium - lanthanide estimate",
    "equation": "Fuller-Schettler-Giddings (1966)",
    "usage": "Sum atomic contributions for compound Σv, then: D_AB = 0.00143×T^1.75 / (P × M_AB^0.5 × (Σv_A^(1/3) + Σv_B^(1/3))²)"
  }
}
