{
  "atomicNumber": 63,
  "symbol": "Eu",
  "name": "Europium",
  "elementCategory": "lanthanide",
  "chemicalBlock": "f",
  "valenceElectrons": 3,
  "oxidationStates": [
    3,
    2
  ],
  "standardUsed": "iupac",
  "nist": {
    "atomicMass": 151.964,
    "electronegativity": null,
    "ionizationEnergy": 547.1,
    "atomicRadius": 233,
    "electronAffinity": 50,
    "standardMolarEntropy": 77.78,
    "specificHeatCapacity": 0.182,
    "meltingPoint": 822,
    "boilingPoint": 1597,
    "density": 5.244,
    "thermalConductivity": 13.9,
    "source": "NIST Chemistry WebBook 2024"
  },
  "iupac": {
    "atomicMass": 151.964,
    "electronegativity": null,
    "ionizationEnergy": 547.1,
    "atomicRadius": 233,
    "electronAffinity": 50,
    "standardMolarEntropy": 77.78,
    "specificHeatCapacity": 0.182,
    "meltingPoint": 822,
    "boilingPoint": 1597,
    "density": 5.244,
    "thermalConductivity": 13.9,
    "source": "IUPAC Periodic Table 2024"
  },
  "physicalProperties": {
    "phase": "solid",
    "appearance": "silvery-white metal",
    "uses": [],
    "notes": "Element of the lanthanide group"
  },
  "lastUpdated": "2026-01-27",
  "educationalNotes": "Europium is the red phosphor in color TV screens - gives reds and magentas! Europium activated yttrium oxide produces red light. Europium oxide used in photoconductors. Europium-151/153 used in nuclear medicine. Discovered in 1896. Named after Europe. Europium fluorescence used in security features on Euro banknotes (anti-counterfeiting). Rare earth magnets improved with europium. Biological studies use europium tracers.",
  "diffusion": {
    "atomicDiffusionVolume": 26,
    "unit": "dimensionless (cm³/mol conceptually)",
    "source": "Estimated",
    "note": "Europium - lanthanide estimate",
    "equation": "Fuller-Schettler-Giddings (1966)",
    "usage": "Sum atomic contributions for compound Σv, then: D_AB = 0.00143×T^1.75 / (P × M_AB^0.5 × (Σv_A^(1/3) + Σv_B^(1/3))²)"
  }
}
