{
  "atomicNumber": 64,
  "symbol": "Gd",
  "name": "Gadolinium",
  "elementCategory": "lanthanide",
  "chemicalBlock": "f",
  "valenceElectrons": 3,
  "oxidationStates": [
    3
  ],
  "standardUsed": "iupac",
  "nist": {
    "atomicMass": 157.25,
    "electronegativity": 1.2,
    "ionizationEnergy": 592.5,
    "atomicRadius": 234,
    "electronAffinity": 50,
    "standardMolarEntropy": 68.1,
    "specificHeatCapacity": 0.236,
    "meltingPoint": 1313,
    "boilingPoint": 3273,
    "density": 7.901,
    "thermalConductivity": 10.5,
    "source": "NIST Chemistry WebBook 2024"
  },
  "iupac": {
    "atomicMass": 157.25,
    "electronegativity": 1.2,
    "ionizationEnergy": 592.5,
    "atomicRadius": 234,
    "electronAffinity": 50,
    "standardMolarEntropy": 68.1,
    "specificHeatCapacity": 0.236,
    "meltingPoint": 1313,
    "boilingPoint": 3273,
    "density": 7.901,
    "thermalConductivity": 10.5,
    "source": "IUPAC Periodic Table 2024"
  },
  "physicalProperties": {
    "phase": "solid",
    "appearance": "silvery-white metal",
    "uses": [],
    "notes": "Element of the lanthanide group"
  },
  "lastUpdated": "2026-01-27",
  "educationalNotes": "Gadolinium is paramagnetic - attracted to magnets more than iron! Gadolinium contrast agents used in MRI - makes images clearer. Gadolinium-157 has huge neutron absorption - used in nuclear reactor control rods. High Curie temperature - used in magnets. Discovered in 1880. Named after gadolinite mineral. Gadolinium iron garnet used in microwave devices. Interesting magnetic properties from unpaired electrons.",
  "diffusion": {
    "atomicDiffusionVolume": 25,
    "unit": "dimensionless (cm³/mol conceptually)",
    "source": "Estimated",
    "note": "Gadolinium - lanthanide estimate",
    "equation": "Fuller-Schettler-Giddings (1966)",
    "usage": "Sum atomic contributions for compound Σv, then: D_AB = 0.00143×T^1.75 / (P × M_AB^0.5 × (Σv_A^(1/3) + Σv_B^(1/3))²)"
  }
}
