{
  "atomicNumber": 66,
  "symbol": "Dy",
  "name": "Dysprosium",
  "elementCategory": "lanthanide",
  "chemicalBlock": "f",
  "valenceElectrons": 3,
  "oxidationStates": [
    3
  ],
  "standardUsed": "iupac",
  "nist": {
    "atomicMass": 162.5,
    "electronegativity": 1.22,
    "ionizationEnergy": 573,
    "atomicRadius": 228,
    "electronAffinity": 50,
    "standardMolarEntropy": 75.6,
    "specificHeatCapacity": 0.17,
    "meltingPoint": 1412,
    "boilingPoint": 2567,
    "density": 8.551,
    "thermalConductivity": 10.7,
    "source": "NIST Chemistry WebBook 2024"
  },
  "iupac": {
    "atomicMass": 162.5,
    "electronegativity": 1.22,
    "ionizationEnergy": 573,
    "atomicRadius": 228,
    "electronAffinity": 50,
    "standardMolarEntropy": 75.6,
    "specificHeatCapacity": 0.17,
    "meltingPoint": 1412,
    "boilingPoint": 2567,
    "density": 8.551,
    "thermalConductivity": 10.7,
    "source": "IUPAC Periodic Table 2024"
  },
  "physicalProperties": {
    "phase": "solid",
    "appearance": "silvery-white metal",
    "uses": [],
    "notes": "Element of the lanthanide group"
  },
  "lastUpdated": "2026-01-27",
  "educationalNotes": "Dysprosium is rare earth with highest magnetic moment at room temperature! Dysprosium-iron-boron magnets work at extreme temperatures. Dysprosium oxide gives yellow color to glass. Dysprosium-165 stable isotope. Discovered in 1886. Name means 'hard to get' in Greek (appropriate!). Used in nuclear reactor control rods. Neodymium-dysprosium alloys for permanent magnets. Expensive and in high demand for technology."
}
