{
  "atomicNumber": 67,
  "symbol": "Ho",
  "name": "Holmium",
  "elementCategory": "lanthanide",
  "chemicalBlock": "f",
  "valenceElectrons": 3,
  "oxidationStates": [
    3
  ],
  "standardUsed": "iupac",
  "nist": {
    "atomicMass": 164.93,
    "electronegativity": 1.23,
    "ionizationEnergy": 581,
    "atomicRadius": 226,
    "electronAffinity": 50,
    "standardMolarEntropy": 75,
    "specificHeatCapacity": 0.165,
    "meltingPoint": 1474,
    "boilingPoint": 2700,
    "density": 8.795,
    "thermalConductivity": 16.2,
    "source": "NIST Chemistry WebBook 2024"
  },
  "iupac": {
    "atomicMass": 164.93,
    "electronegativity": 1.23,
    "ionizationEnergy": 581,
    "atomicRadius": 226,
    "electronAffinity": 50,
    "standardMolarEntropy": 75,
    "specificHeatCapacity": 0.165,
    "meltingPoint": 1474,
    "boilingPoint": 2700,
    "density": 8.795,
    "thermalConductivity": 16.2,
    "source": "IUPAC Periodic Table 2024"
  },
  "physicalProperties": {
    "phase": "solid",
    "appearance": "silvery-white metal",
    "uses": [],
    "notes": "Element of the lanthanide group"
  },
  "lastUpdated": "2026-01-27",
  "educationalNotes": "Holmium is rare earth with interesting magnetic properties - used in some magnets! Holmium oxide gives yellow/red color to glass. Holmium-166 radioactive for cancer treatment. Holmium-aluminum garnet laser emits infrared used in eye surgery. Discovered in 1878. Named after Stockholm (Holmia in Latin). Holmium in high magnetic fields shows unusual quantum behavior. Research uses holmium-doped materials.",
  "diffusion": {
    "atomicDiffusionVolume": 23.5,
    "unit": "dimensionless (cm³/mol conceptually)",
    "source": "Estimated",
    "note": "Holmium - lanthanide estimate",
    "equation": "Fuller-Schettler-Giddings (1966)",
    "usage": "Sum atomic contributions for compound Σv, then: D_AB = 0.00143×T^1.75 / (P × M_AB^0.5 × (Σv_A^(1/3) + Σv_B^(1/3))²)"
  }
}
