{
  "atomicNumber": 68,
  "symbol": "Er",
  "name": "Erbium",
  "elementCategory": "lanthanide",
  "chemicalBlock": "f",
  "valenceElectrons": 3,
  "oxidationStates": [
    3
  ],
  "standardUsed": "iupac",
  "nist": {
    "atomicMass": 167.259,
    "electronegativity": 1.24,
    "ionizationEnergy": 589.3,
    "atomicRadius": 226,
    "electronAffinity": 50,
    "standardMolarEntropy": 73.8,
    "specificHeatCapacity": 0.168,
    "meltingPoint": 1529,
    "boilingPoint": 2868,
    "density": 9.066,
    "thermalConductivity": 14.3,
    "source": "NIST Chemistry WebBook 2024"
  },
  "iupac": {
    "atomicMass": 167.259,
    "electronegativity": 1.24,
    "ionizationEnergy": 589.3,
    "atomicRadius": 226,
    "electronAffinity": 50,
    "standardMolarEntropy": 73.8,
    "specificHeatCapacity": 0.168,
    "meltingPoint": 1529,
    "boilingPoint": 2868,
    "density": 9.066,
    "thermalConductivity": 14.3,
    "source": "IUPAC Periodic Table 2024"
  },
  "physicalProperties": {
    "phase": "solid",
    "appearance": "silvery-white metal",
    "uses": [],
    "notes": "Element of the lanthanide group"
  },
  "lastUpdated": "2026-01-27",
  "educationalNotes": "Erbium is rare earth commonly doped into glasses and crystals - fiber optic amplifiers use Er! Erbium-doped fiber amplifiers boost weak signals in long-distance telecommunications. Er-YAG laser used in dental surgery and skin resurfacing. Erbium oxide pink color in glass. Discovered in 1843. Named after Ytterby. Erbium ions in lasers produce infrared light. Telecommunications industry consumes most erbium.",
  "diffusion": {
    "atomicDiffusionVolume": 23,
    "unit": "dimensionless (cm³/mol conceptually)",
    "source": "Estimated",
    "note": "Erbium - lanthanide estimate",
    "equation": "Fuller-Schettler-Giddings (1966)",
    "usage": "Sum atomic contributions for compound Σv, then: D_AB = 0.00143×T^1.75 / (P × M_AB^0.5 × (Σv_A^(1/3) + Σv_B^(1/3))²)"
  }
}
