{
  "atomicNumber": 69,
  "symbol": "Tm",
  "name": "Thulium",
  "elementCategory": "lanthanide",
  "chemicalBlock": "f",
  "valenceElectrons": 3,
  "oxidationStates": [
    3,
    2
  ],
  "standardUsed": "iupac",
  "nist": {
    "atomicMass": 168.934,
    "electronegativity": 1.25,
    "ionizationEnergy": 596.7,
    "atomicRadius": 222,
    "electronAffinity": 50,
    "standardMolarEntropy": 74,
    "specificHeatCapacity": 0.16,
    "meltingPoint": 1545,
    "boilingPoint": 1950,
    "density": 9.321,
    "thermalConductivity": 16.9,
    "source": "NIST Chemistry WebBook 2024"
  },
  "iupac": {
    "atomicMass": 168.934,
    "electronegativity": 1.25,
    "ionizationEnergy": 596.7,
    "atomicRadius": 222,
    "electronAffinity": 50,
    "standardMolarEntropy": 74,
    "specificHeatCapacity": 0.16,
    "meltingPoint": 1545,
    "boilingPoint": 1950,
    "density": 9.321,
    "thermalConductivity": 16.9,
    "source": "IUPAC Periodic Table 2024"
  },
  "physicalProperties": {
    "phase": "solid",
    "appearance": "silvery-white metal",
    "uses": [],
    "notes": "Element of the lanthanide group"
  },
  "lastUpdated": "2026-01-27",
  "educationalNotes": "Thulium is rarest lanthanide - most expensive rare earth after francium! Thulium-170 X-ray source for portable radiography (field use). Thulium-doped fiber laser produces infrared. Thulium is toxic and accumulates in body. Blue thulium oxide used in high-quality glass. Discovered in 1879. Named from Thule (ancient name for Scandinavia). Limited applications due to scarcity and cost. Research interest in medical imaging.",
  "diffusion": {
    "atomicDiffusionVolume": 22.5,
    "unit": "dimensionless (cm³/mol conceptually)",
    "source": "Estimated",
    "note": "Thulium - lanthanide estimate",
    "equation": "Fuller-Schettler-Giddings (1966)",
    "usage": "Sum atomic contributions for compound Σv, then: D_AB = 0.00143×T^1.75 / (P × M_AB^0.5 × (Σv_A^(1/3) + Σv_B^(1/3))²)"
  }
}
