{
  "atomicNumber": 70,
  "symbol": "Yb",
  "name": "Ytterbium",
  "elementCategory": "lanthanide",
  "chemicalBlock": "f",
  "valenceElectrons": 3,
  "oxidationStates": [
    3,
    2
  ],
  "standardUsed": "iupac",
  "nist": {
    "atomicMass": 173.054,
    "electronegativity": null,
    "ionizationEnergy": 603.4,
    "atomicRadius": 222,
    "electronAffinity": 50,
    "standardMolarEntropy": 98.3,
    "specificHeatCapacity": 0.155,
    "meltingPoint": 824,
    "boilingPoint": 1469,
    "density": 6.966,
    "thermalConductivity": 34.9,
    "source": "NIST Chemistry WebBook 2024"
  },
  "iupac": {
    "atomicMass": 173.054,
    "electronegativity": null,
    "ionizationEnergy": 603.4,
    "atomicRadius": 222,
    "electronAffinity": 50,
    "standardMolarEntropy": 98.3,
    "specificHeatCapacity": 0.155,
    "meltingPoint": 824,
    "boilingPoint": 1469,
    "density": 6.966,
    "thermalConductivity": 34.9,
    "source": "IUPAC Periodic Table 2024"
  },
  "physicalProperties": {
    "phase": "solid",
    "appearance": "silvery-white metal",
    "uses": [],
    "notes": "Element of the lanthanide group"
  },
  "lastUpdated": "2026-01-27",
  "educationalNotes": "Ytterbium has unique electronic structure - used in atomic clocks! Ytterbium optical lattice clocks are extraordinarily accurate (better than cesium). Ytterbium-doped fiber lasers produce powerful infrared. Ytterbium-2 (divalent) shows unusual quantum properties. Discovered in 1878. Named after Ytterby. Ytterbium accumulates in bone tissue. Space-based ytterbium clocks enable GPS and relativity tests.",
  "diffusion": {
    "atomicDiffusionVolume": 23,
    "unit": "dimensionless (cm³/mol conceptually)",
    "source": "Estimated",
    "note": "Ytterbium - lanthanide estimate",
    "equation": "Fuller-Schettler-Giddings (1966)",
    "usage": "Sum atomic contributions for compound Σv, then: D_AB = 0.00143×T^1.75 / (P × M_AB^0.5 × (Σv_A^(1/3) + Σv_B^(1/3))²)"
  }
}
