{
  "atomicNumber": 75,
  "symbol": "Re",
  "name": "Rhenium",
  "elementCategory": "transition-metal",
  "chemicalBlock": "d",
  "valenceElectrons": 7,
  "oxidationStates": [
    7
  ],
  "standardUsed": "iupac",
  "nist": {
    "atomicMass": 186.207,
    "electronegativity": 1.9,
    "ionizationEnergy": 760,
    "atomicRadius": 217,
    "electronAffinity": 15,
    "standardMolarEntropy": 36.53,
    "specificHeatCapacity": 0.137,
    "meltingPoint": 3185,
    "boilingPoint": 5590,
    "density": 21.02,
    "thermalConductivity": 48,
    "source": "NIST Chemistry WebBook 2024"
  },
  "iupac": {
    "atomicMass": 186.207,
    "electronegativity": 1.9,
    "ionizationEnergy": 760,
    "atomicRadius": 217,
    "electronAffinity": 15,
    "standardMolarEntropy": 36.53,
    "specificHeatCapacity": 0.137,
    "meltingPoint": 3185,
    "boilingPoint": 5590,
    "density": 21.02,
    "thermalConductivity": 48,
    "source": "IUPAC Periodic Table 2024"
  },
  "physicalProperties": {
    "phase": "solid",
    "appearance": "silvery-white metal",
    "uses": [],
    "notes": "Element of the transition-metal group"
  },
  "lastUpdated": "2026-01-27",
  "educationalNotes": "Rhenium is extremely rare and expensive - cost ~$20,000 per kilogram! Rhenium-molybdenum alloys used in rocket engines (Space Shuttle). Rhenium-osmium alloy has incredibly high melting point. Rhenium catalysts used in petroleum refining. Discovered in 1925 (one of last naturally occurring elements). Named after Rhine River. Rhenium-188 radioactive for cancer therapy. Limited supply - mostly byproduct of molybdenum mining.",
  "diffusion": {
    "atomicDiffusionVolume": 18,
    "unit": "dimensionless (cm³/mol conceptually)",
    "source": "Estimated",
    "note": "Rhenium - estimated",
    "equation": "Fuller-Schettler-Giddings (1966)",
    "usage": "Sum atomic contributions for compound Σv, then: D_AB = 0.00143×T^1.75 / (P × M_AB^0.5 × (Σv_A^(1/3) + Σv_B^(1/3))²)"
  }
}
