{
  "atomicNumber": 78,
  "symbol": "Pt",
  "name": "Platinum",
  "elementCategory": "transition-metal",
  "chemicalBlock": "d",
  "valenceElectrons": 10,
  "oxidationStates": [
    2
  ],
  "standardUsed": "iupac",
  "nist": {
    "atomicMass": 195.084,
    "electronegativity": 2.28,
    "ionizationEnergy": 870,
    "atomicRadius": 202,
    "electronAffinity": 205.3,
    "standardMolarEntropy": 41.63,
    "specificHeatCapacity": 0.133,
    "meltingPoint": 1768.4,
    "boilingPoint": 3825,
    "density": 21.46,
    "thermalConductivity": 71.6,
    "source": "NIST Chemistry WebBook 2024"
  },
  "iupac": {
    "atomicMass": 195.084,
    "electronegativity": 2.28,
    "ionizationEnergy": 870,
    "atomicRadius": 202,
    "electronAffinity": 205.3,
    "standardMolarEntropy": 41.63,
    "specificHeatCapacity": 0.133,
    "meltingPoint": 1768.4,
    "boilingPoint": 3825,
    "density": 21.46,
    "thermalConductivity": 71.6,
    "source": "IUPAC Periodic Table 2024"
  },
  "physicalProperties": {
    "phase": "solid",
    "appearance": "silvery-white metal",
    "uses": [],
    "notes": "Element of the transition-metal group"
  },
  "lastUpdated": "2026-01-27",
  "educationalNotes": "Platinum is most precious metal - doesn't tarnish or corrode ever! Ancient Egyptians used platinum 3,000 years ago. Platinum catalytic converters reduce car pollution (also recycled for value). Platinum jewelry never needs polishing. Platinum resistance thermometers measure temperature precisely. Chemotherapy drug cisplatin uses platinum. Discovered in South America by Spanish conquistadors. Price fluctuates but always expensive.",
  "diffusion": {
    "atomicDiffusionVolume": 17,
    "unit": "dimensionless (cm³/mol conceptually)",
    "source": "Estimated",
    "note": "Platinum - estimated",
    "equation": "Fuller-Schettler-Giddings (1966)",
    "usage": "Sum atomic contributions for compound Σv, then: D_AB = 0.00143×T^1.75 / (P × M_AB^0.5 × (Σv_A^(1/3) + Σv_B^(1/3))²)"
  }
}
