{
  "atomicNumber": 79,
  "symbol": "Au",
  "name": "Gold",
  "elementCategory": "transition-metal",
  "chemicalBlock": "d",
  "valenceElectrons": 1,
  "oxidationStates": [
    3,
    1
  ],
  "standardUsed": "iupac",
  "nist": {
    "atomicMass": 196.967,
    "electronegativity": 2.54,
    "ionizationEnergy": 890.1,
    "atomicRadius": 206,
    "electronAffinity": 222.8,
    "standardMolarEntropy": 47.4,
    "specificHeatCapacity": 0.129,
    "meltingPoint": 1064.18,
    "boilingPoint": 2856,
    "density": 19.3,
    "thermalConductivity": 317,
    "source": "NIST Chemistry WebBook 2024"
  },
  "iupac": {
    "atomicMass": 196.967,
    "electronegativity": 2.54,
    "ionizationEnergy": 890.1,
    "atomicRadius": 206,
    "electronAffinity": 222.8,
    "standardMolarEntropy": 47.4,
    "specificHeatCapacity": 0.129,
    "meltingPoint": 1064.18,
    "boilingPoint": 2856,
    "density": 19.3,
    "thermalConductivity": 317,
    "source": "IUPAC Periodic Table 2024"
  },
  "physicalProperties": {
    "phase": "solid",
    "appearance": "yellow metal",
    "uses": [],
    "notes": "Element of the transition-metal group"
  },
  "lastUpdated": "2026-01-27",
  "educationalNotes": "Gold doesn't tarnish or corrode - jewelry from 3000 years ago looks new! Symbol Au from Latin 'aurum'. Most precious metal, prized for wealth and beauty. Chemically unreactive - won't react with oxygen, water, or most acids (only aqua regia dissolves it). Gold is extremely dense - one ounce of gold can be pounded into a sheet covering 300 square feet. Gold-198 is radioactive and used in medical imaging. All gold ever mined could fit in a cube 22 meters on a side.",
  "diffusion": {
    "atomicDiffusionVolume": 18,
    "unit": "dimensionless (cm³/mol conceptually)",
    "source": "Estimated",
    "note": "Gold - estimated",
    "equation": "Fuller-Schettler-Giddings (1966)",
    "usage": "Sum atomic contributions for compound Σv, then: D_AB = 0.00143×T^1.75 / (P × M_AB^0.5 × (Σv_A^(1/3) + Σv_B^(1/3))²)"
  }
}
