{
  "atomicNumber": 80,
  "symbol": "Hg",
  "name": "Mercury",
  "elementCategory": "transition-metal",
  "chemicalBlock": "d",
  "valenceElectrons": 2,
  "oxidationStates": [
    2,
    1
  ],
  "standardUsed": "iupac",
  "nist": {
    "atomicMass": 200.592,
    "electronegativity": 2,
    "ionizationEnergy": 1007.1,
    "atomicRadius": 171,
    "electronAffinity": 0,
    "standardMolarEntropy": 75.9,
    "specificHeatCapacity": 0.14,
    "meltingPoint": -38.83,
    "boilingPoint": 356.73,
    "density": 13.534,
    "thermalConductivity": 8.87,
    "source": "NIST Chemistry WebBook 2024"
  },
  "iupac": {
    "atomicMass": 200.592,
    "electronegativity": 2,
    "ionizationEnergy": 1007.1,
    "atomicRadius": 171,
    "electronAffinity": 0,
    "standardMolarEntropy": 75.9,
    "specificHeatCapacity": 0.14,
    "meltingPoint": -38.83,
    "boilingPoint": 356.73,
    "density": 13.534,
    "thermalConductivity": 8.87,
    "source": "IUPAC Periodic Table 2024"
  },
  "physicalProperties": {
    "phase": "liquid",
    "appearance": "silver-white liquid",
    "uses": [],
    "notes": "Element of the transition-metal group"
  },
  "lastUpdated": "2026-01-27",
  "educationalNotes": "Mercury is the only liquid metal at room temperature - it's a shimmering silver liquid that rolls into spheres. Extremely toxic - mercury vapor damages brain and kidneys. Thermometers used mercury for 300 years (now mostly replaced with alcohol). Mercury switch lights toggle when tilted - old devices had them. Used in gold mining (amalgam extraction) causing severe poisoning in artisanal miners. Dental amalgams (silver fillings) contain mercury (controversy over safety). Named after Roman god - symbol Hg from Latin 'hydrargyrum' (liquid silver).",
  "diffusion": {
    "atomicDiffusionVolume": 20,
    "unit": "dimensionless (cm³/mol conceptually)",
    "source": "Estimated",
    "note": "Mercury - estimated",
    "equation": "Fuller-Schettler-Giddings (1966)",
    "usage": "Sum atomic contributions for compound Σv, then: D_AB = 0.00143×T^1.75 / (P × M_AB^0.5 × (Σv_A^(1/3) + Σv_B^(1/3))²)"
  }
}
