{
  "atomicNumber": 83,
  "symbol": "Bi",
  "name": "Bismuth",
  "elementCategory": "post-transition-metal",
  "chemicalBlock": "p",
  "valenceElectrons": 5,
  "oxidationStates": [
    5,
    3
  ],
  "standardUsed": "iupac",
  "nist": {
    "atomicMass": 208.98,
    "electronegativity": 2.02,
    "ionizationEnergy": 703.5,
    "atomicRadius": 207,
    "electronAffinity": 91.2,
    "standardMolarEntropy": 56.74,
    "specificHeatCapacity": 0.122,
    "meltingPoint": 271.5,
    "boilingPoint": 1564,
    "density": 9.78,
    "thermalConductivity": 7.87,
    "source": "NIST Chemistry WebBook 2024"
  },
  "iupac": {
    "atomicMass": 208.98,
    "electronegativity": 2.02,
    "ionizationEnergy": 703.5,
    "atomicRadius": 207,
    "electronAffinity": 91.2,
    "standardMolarEntropy": 56.74,
    "specificHeatCapacity": 0.122,
    "meltingPoint": 271.5,
    "boilingPoint": 1564,
    "density": 9.78,
    "thermalConductivity": 7.87,
    "source": "IUPAC Periodic Table 2024"
  },
  "physicalProperties": {
    "phase": "solid",
    "appearance": "gray-white metal",
    "uses": [],
    "notes": "Element of the post-transition-metal group"
  },
  "lastUpdated": "2026-01-27",
  "educationalNotes": "Bismuth is beautiful crystalline metal - rainbow colors when oxidized! Bismuth compounds used as medical treatments (pepto-bismol). Low melting point (271°C) - used in fire sprinkler systems (melts to trigger). Bismuth-209 officially stable but technically radioactive (extremely long half-life). Discovered in medieval times. Named from German 'wismut'. Crystal structure creates interference colors. Non-toxic compared to other heavy metals."
}
