{
  "atomicNumber": 85,
  "symbol": "At",
  "name": "Astatine",
  "elementCategory": "halogen",
  "chemicalBlock": "p",
  "valenceElectrons": 7,
  "oxidationStates": [
    7,
    5,
    1,
    -1
  ],
  "standardUsed": "iupac",
  "nist": {
    "atomicMass": 210,
    "electronegativity": 2.2,
    "ionizationEnergy": 899,
    "atomicRadius": 202,
    "electronAffinity": 270,
    "standardMolarEntropy": null,
    "specificHeatCapacity": null,
    "meltingPoint": 302,
    "boilingPoint": 337,
    "density": null,
    "thermalConductivity": 2,
    "source": "NIST Chemistry WebBook 2024"
  },
  "iupac": {
    "atomicMass": 210,
    "electronegativity": 2.2,
    "ionizationEnergy": 899,
    "atomicRadius": 202,
    "electronAffinity": 270,
    "standardMolarEntropy": null,
    "specificHeatCapacity": null,
    "meltingPoint": 302,
    "boilingPoint": 337,
    "density": null,
    "thermalConductivity": 2,
    "source": "IUPAC Periodic Table 2024"
  },
  "physicalProperties": {
    "phase": "solid",
    "appearance": "dark gray-brown solid",
    "uses": [],
    "notes": "Element of the halogen group"
  },
  "lastUpdated": "2026-01-27",
  "educationalNotes": "Astatine is rarest naturally occurring element - only ~1 gram exists in Earth's crust at any time! Element-211 synthesized in particle accelerators. Astatine-211 experimental cancer therapy (alpha emitter targets tumors). Extremely radioactive - decays quickly. Named from Greek 'astatos' (unstable). Only discovered in 1940 in cyclotron. Properties largely theoretical - too radioactive to study. Medical potential but challenging to use."
}
