{
  "atomicNumber": 86,
  "symbol": "Rn",
  "name": "Radon",
  "elementCategory": "noble-gas",
  "chemicalBlock": "p",
  "valenceElectrons": 8,
  "oxidationStates": [],
  "standardUsed": "iupac",
  "nist": {
    "atomicMass": 222,
    "electronegativity": null,
    "ionizationEnergy": 1037,
    "atomicRadius": 220,
    "electronAffinity": 0,
    "standardMolarEntropy": 176.23,
    "specificHeatCapacity": 0.094,
    "meltingPoint": -71,
    "boilingPoint": -61.7,
    "density": 0.00973,
    "thermalConductivity": 0.00364,
    "source": "NIST Chemistry WebBook 2024"
  },
  "iupac": {
    "atomicMass": 222,
    "electronegativity": null,
    "ionizationEnergy": 1037,
    "atomicRadius": 220,
    "electronAffinity": 0,
    "standardMolarEntropy": 176.23,
    "specificHeatCapacity": 0.094,
    "meltingPoint": -71,
    "boilingPoint": -61.7,
    "density": 0.00973,
    "thermalConductivity": 0.00364,
    "source": "IUPAC Periodic Table 2024"
  },
  "physicalProperties": {
    "phase": "gas",
    "appearance": "colorless gas",
    "uses": [],
    "notes": "Element of the noble-gas group"
  },
  "lastUpdated": "2026-01-27",
  "educationalNotes": "Radon is radioactive noble gas - seeps from rocks and accumulates in basements! Radon-222 decays to polonium - second leading cause of lung cancer (after smoking). Radon test kits detect accumulation. Ventilation removes radon gas. Radon daughter products (polonium, bismuth, lead) stick to lung tissue - causes damage. Discovered in 1900. Named from Latin 'radius' (ray). Only element that's gas at room temperature.",
  "diffusion": {
    "atomicDiffusionVolume": 38,
    "unit": "dimensionless (cm³/mol conceptually)",
    "source": "Estimated",
    "note": "Radon - estimated from noble gas trend",
    "equation": "Fuller-Schettler-Giddings (1966)",
    "usage": "Sum atomic contributions for compound Σv, then: D_AB = 0.00143×T^1.75 / (P × M_AB^0.5 × (Σv_A^(1/3) + Σv_B^(1/3))²)"
  }
}
