{
  "atomicNumber": 87,
  "symbol": "Fr",
  "name": "Francium",
  "elementCategory": "alkali-metal",
  "chemicalBlock": "s",
  "valenceElectrons": 1,
  "oxidationStates": [
    1
  ],
  "standardUsed": "iupac",
  "nist": {
    "atomicMass": 223,
    "electronegativity": 0.7,
    "ionizationEnergy": 380,
    "atomicRadius": 348,
    "electronAffinity": 42,
    "standardMolarEntropy": 84,
    "specificHeatCapacity": null,
    "meltingPoint": 8,
    "boilingPoint": 677,
    "density": null,
    "thermalConductivity": null,
    "source": "NIST Chemistry WebBook 2024"
  },
  "iupac": {
    "atomicMass": 223,
    "electronegativity": 0.7,
    "ionizationEnergy": 380,
    "atomicRadius": 348,
    "electronAffinity": 42,
    "standardMolarEntropy": 84,
    "specificHeatCapacity": null,
    "meltingPoint": 8,
    "boilingPoint": 677,
    "density": null,
    "thermalConductivity": null,
    "source": "IUPAC Periodic Table 2024"
  },
  "physicalProperties": {
    "phase": "solid",
    "appearance": "silvery-white metal",
    "uses": [],
    "notes": "Element of the alkali-metal group"
  },
  "lastUpdated": "2026-01-27",
  "educationalNotes": "Francium is rarest element - only ~1 atom in 10 septillion exists naturally! Most radioactive naturally occurring element. Francium-223 exists briefly before decaying. Never isolated (too radioactive - would kill experimenter). Properties predicted but unmeasured (chemistry inference only). Named after France. Discovered in 1939. Every francium atom exists <20 minutes. Only synthesized in particle accelerators for research.",
  "diffusion": {
    "atomicDiffusionVolume": 48,
    "unit": "dimensionless (cm³/mol conceptually)",
    "source": "Estimated",
    "note": "Estimated from group trend",
    "equation": "Fuller-Schettler-Giddings (1966)",
    "usage": "Sum atomic contributions for compound Σv, then: D_AB = 0.00143×T^1.75 / (P × M_AB^0.5 × (Σv_A^(1/3) + Σv_B^(1/3))²)"
  }
}
