{
  "atomicNumber": 104,
  "symbol": "Rf",
  "name": "Rutherfordium",
  "elementCategory": "transition-metal",
  "chemicalBlock": "d",
  "valenceElectrons": 4,
  "oxidationStates": [
    4
  ],
  "standardUsed": "iupac",
  "nist": {
    "atomicMass": 267,
    "electronegativity": null,
    "ionizationEnergy": 600,
    "atomicRadius": 220,
    "electronAffinity": 0,
    "standardMolarEntropy": null,
    "specificHeatCapacity": null,
    "meltingPoint": null,
    "boilingPoint": null,
    "density": null,
    "thermalConductivity": null,
    "source": "NIST Chemistry WebBook 2024"
  },
  "iupac": {
    "atomicMass": 267,
    "electronegativity": null,
    "ionizationEnergy": 600,
    "atomicRadius": 220,
    "electronAffinity": 0,
    "standardMolarEntropy": null,
    "specificHeatCapacity": null,
    "meltingPoint": null,
    "boilingPoint": null,
    "density": null,
    "thermalConductivity": null,
    "source": "IUPAC Periodic Table 2024"
  },
  "physicalProperties": {
    "phase": "solid",
    "appearance": "synthetic element",
    "uses": [],
    "notes": "Element of the transition-metal group"
  },
  "lastUpdated": "2026-01-27",
  "educationalNotes": "Rutherfordium is named after Ernest Rutherford - discovered atomic nucleus! Rutherfordium-267 half-life 1.3 hours. First transactinide. Synthesized in 1969. Super-heavy element chemistry barely understood. Few atoms - chemistry inferred from parent/daughter decay. Named in 1997 (naming dispute). Element properties theoretical. Research element only.",
  "diffusion": {
    "atomicDiffusionVolume": 24,
    "unit": "dimensionless (cm³/mol conceptually)",
    "source": "Estimated",
    "note": "Rutherfordium - superheavy estimate",
    "equation": "Fuller-Schettler-Giddings (1966)",
    "usage": "Sum atomic contributions for compound Σv, then: D_AB = 0.00143×T^1.75 / (P × M_AB^0.5 × (Σv_A^(1/3) + Σv_B^(1/3))²)"
  }
}
