{
  "atomicNumber": 105,
  "symbol": "Db",
  "name": "Dubnium",
  "elementCategory": "transition-metal",
  "chemicalBlock": "d",
  "valenceElectrons": 5,
  "oxidationStates": [
    5
  ],
  "standardUsed": "iupac",
  "nist": {
    "atomicMass": 268,
    "electronegativity": null,
    "ionizationEnergy": 600,
    "atomicRadius": 220,
    "electronAffinity": 0,
    "standardMolarEntropy": null,
    "specificHeatCapacity": null,
    "meltingPoint": null,
    "boilingPoint": null,
    "density": null,
    "thermalConductivity": null,
    "source": "NIST Chemistry WebBook 2024"
  },
  "iupac": {
    "atomicMass": 268,
    "electronegativity": null,
    "ionizationEnergy": 600,
    "atomicRadius": 220,
    "electronAffinity": 0,
    "standardMolarEntropy": null,
    "specificHeatCapacity": null,
    "meltingPoint": null,
    "boilingPoint": null,
    "density": null,
    "thermalConductivity": null,
    "source": "IUPAC Periodic Table 2024"
  },
  "physicalProperties": {
    "phase": "solid",
    "appearance": "synthetic element",
    "uses": [],
    "notes": "Element of the transition-metal group"
  },
  "lastUpdated": "2026-01-27",
  "educationalNotes": "Dubnium is named after Dubna, Russia - nuclear research center! Dubnium-268 half-life 29 hours (longest isotope). Synthesized in 1970. Transactinide - heavier than lawrencium. Chemical study challenging - few atoms. Decay patterns studied. Predicted to be transition metal analog. Named in 1997. Element properties inferred. Research interest."
}
