{
  "atomicNumber": 106,
  "symbol": "Sg",
  "name": "Seaborgium",
  "elementCategory": "transition-metal",
  "chemicalBlock": "d",
  "valenceElectrons": 6,
  "oxidationStates": [
    6
  ],
  "standardUsed": "iupac",
  "nist": {
    "atomicMass": 271,
    "electronegativity": null,
    "ionizationEnergy": 600,
    "atomicRadius": 220,
    "electronAffinity": 0,
    "standardMolarEntropy": null,
    "specificHeatCapacity": null,
    "meltingPoint": null,
    "boilingPoint": null,
    "density": null,
    "thermalConductivity": null,
    "source": "NIST Chemistry WebBook 2024"
  },
  "iupac": {
    "atomicMass": 271,
    "electronegativity": null,
    "ionizationEnergy": 600,
    "atomicRadius": 220,
    "electronAffinity": 0,
    "standardMolarEntropy": null,
    "specificHeatCapacity": null,
    "meltingPoint": null,
    "boilingPoint": null,
    "density": null,
    "thermalConductivity": null,
    "source": "IUPAC Periodic Table 2024"
  },
  "physicalProperties": {
    "phase": "solid",
    "appearance": "synthetic element",
    "uses": [],
    "notes": "Element of the transition-metal group"
  },
  "lastUpdated": "2026-01-27",
  "educationalNotes": "Seaborgium is named after Glenn Seaborg - discoverer of plutonium and many transuranic elements! Seaborgium-271 half-life 3 minutes. Synthesized in 1974. Transactinide element. Chemical identification from decay patterns. Named in 1997 (controversy - Seaborg still living). Predicted similar to tungsten. Named to honor nuclear chemistry pioneer. Research element."
}
