{
  "atomicNumber": 107,
  "symbol": "Bh",
  "name": "Bohrium",
  "elementCategory": "transition-metal",
  "chemicalBlock": "d",
  "valenceElectrons": 7,
  "oxidationStates": [
    7
  ],
  "standardUsed": "iupac",
  "nist": {
    "atomicMass": 272,
    "electronegativity": null,
    "ionizationEnergy": 600,
    "atomicRadius": 220,
    "electronAffinity": 0,
    "standardMolarEntropy": null,
    "specificHeatCapacity": null,
    "meltingPoint": null,
    "boilingPoint": null,
    "density": null,
    "thermalConductivity": null,
    "source": "NIST Chemistry WebBook 2024"
  },
  "iupac": {
    "atomicMass": 272,
    "electronegativity": null,
    "ionizationEnergy": 600,
    "atomicRadius": 220,
    "electronAffinity": 0,
    "standardMolarEntropy": null,
    "specificHeatCapacity": null,
    "meltingPoint": null,
    "boilingPoint": null,
    "density": null,
    "thermalConductivity": null,
    "source": "IUPAC Periodic Table 2024"
  },
  "physicalProperties": {
    "phase": "solid",
    "appearance": "synthetic element",
    "uses": [],
    "notes": "Element of the transition-metal group"
  },
  "lastUpdated": "2026-01-27",
  "educationalNotes": "Bohrium is named after Niels Bohr - founder of quantum mechanics! Bohrium-272 half-life 10 seconds. Synthesized in 1981. Transactinide element. Super-heavy chemistry - few atoms. Predicted to resemble rhenium. Element properties largely theoretical. Named in 1997. Research interest in nuclear physics. No applications.",
  "diffusion": {
    "atomicDiffusionVolume": 21,
    "unit": "dimensionless (cm³/mol conceptually)",
    "source": "Estimated",
    "note": "Bohrium - superheavy estimate",
    "equation": "Fuller-Schettler-Giddings (1966)",
    "usage": "Sum atomic contributions for compound Σv, then: D_AB = 0.00143×T^1.75 / (P × M_AB^0.5 × (Σv_A^(1/3) + Σv_B^(1/3))²)"
  }
}
