{
  "atomicNumber": 108,
  "symbol": "Hs",
  "name": "Hassium",
  "elementCategory": "transition-metal",
  "chemicalBlock": "d",
  "valenceElectrons": 8,
  "oxidationStates": [
    8
  ],
  "standardUsed": "iupac",
  "nist": {
    "atomicMass": 270,
    "electronegativity": null,
    "ionizationEnergy": 600,
    "atomicRadius": 220,
    "electronAffinity": 0,
    "standardMolarEntropy": null,
    "specificHeatCapacity": null,
    "meltingPoint": null,
    "boilingPoint": null,
    "density": null,
    "thermalConductivity": null,
    "source": "NIST Chemistry WebBook 2024"
  },
  "iupac": {
    "atomicMass": 270,
    "electronegativity": null,
    "ionizationEnergy": 600,
    "atomicRadius": 220,
    "electronAffinity": 0,
    "standardMolarEntropy": null,
    "specificHeatCapacity": null,
    "meltingPoint": null,
    "boilingPoint": null,
    "density": null,
    "thermalConductivity": null,
    "source": "IUPAC Periodic Table 2024"
  },
  "physicalProperties": {
    "phase": "solid",
    "appearance": "synthetic element",
    "uses": [],
    "notes": "Element of the transition-metal group"
  },
  "lastUpdated": "2026-01-27",
  "educationalNotes": "Hassium is named after Hesse, Germany - element synthesized there! Hassium-277 half-life 0.9 seconds. Synthesized in 1984. Transactinide - predicted to resemble osmium. Extremely short-lived - few atoms produced. Chemistry inferred from isotope decay. Named in 1997. Super-heavy chemistry exploration. Research element."
}
