{
  "atomicNumber": 109,
  "symbol": "Mt",
  "name": "Meitnerium",
  "elementCategory": "transition-metal",
  "chemicalBlock": "d",
  "valenceElectrons": 9,
  "oxidationStates": [
    9
  ],
  "standardUsed": "iupac",
  "nist": {
    "atomicMass": 278,
    "electronegativity": null,
    "ionizationEnergy": 600,
    "atomicRadius": 220,
    "electronAffinity": 0,
    "standardMolarEntropy": null,
    "specificHeatCapacity": null,
    "meltingPoint": null,
    "boilingPoint": null,
    "density": null,
    "thermalConductivity": null,
    "source": "NIST Chemistry WebBook 2024"
  },
  "iupac": {
    "atomicMass": 278,
    "electronegativity": null,
    "ionizationEnergy": 600,
    "atomicRadius": 220,
    "electronAffinity": 0,
    "standardMolarEntropy": null,
    "specificHeatCapacity": null,
    "meltingPoint": null,
    "boilingPoint": null,
    "density": null,
    "thermalConductivity": null,
    "source": "IUPAC Periodic Table 2024"
  },
  "physicalProperties": {
    "phase": "solid",
    "appearance": "synthetic element",
    "uses": [],
    "notes": "Element of the transition-metal group"
  },
  "lastUpdated": "2026-01-27",
  "educationalNotes": "Meitnerium is named after Lise Meitner - physicist who explained nuclear fission! Meitnerium-278 half-life 7.6 seconds. Synthesized in 1982. Transactinide element. Predicted to resemble iridium. Few atoms - chemistry theoretical. Named in 1997 (honoring her contributions to nuclear physics). Research element. No applications.",
  "diffusion": {
    "atomicDiffusionVolume": 19,
    "unit": "dimensionless (cm³/mol conceptually)",
    "source": "Estimated",
    "note": "Meitnerium - superheavy estimate",
    "equation": "Fuller-Schettler-Giddings (1966)",
    "usage": "Sum atomic contributions for compound Σv, then: D_AB = 0.00143×T^1.75 / (P × M_AB^0.5 × (Σv_A^(1/3) + Σv_B^(1/3))²)"
  }
}
