{
  "atomicNumber": 111,
  "symbol": "Rg",
  "name": "Roentgenium",
  "elementCategory": "transition-metal",
  "chemicalBlock": "d",
  "valenceElectrons": 11,
  "oxidationStates": [
    11
  ],
  "standardUsed": "iupac",
  "nist": {
    "atomicMass": 280,
    "electronegativity": null,
    "ionizationEnergy": 600,
    "atomicRadius": 220,
    "electronAffinity": 0,
    "standardMolarEntropy": null,
    "specificHeatCapacity": null,
    "meltingPoint": null,
    "boilingPoint": null,
    "density": null,
    "thermalConductivity": null,
    "source": "NIST Chemistry WebBook 2024"
  },
  "iupac": {
    "atomicMass": 280,
    "electronegativity": null,
    "ionizationEnergy": 600,
    "atomicRadius": 220,
    "electronAffinity": 0,
    "standardMolarEntropy": null,
    "specificHeatCapacity": null,
    "meltingPoint": null,
    "boilingPoint": null,
    "density": null,
    "thermalConductivity": null,
    "source": "IUPAC Periodic Table 2024"
  },
  "physicalProperties": {
    "phase": "solid",
    "appearance": "synthetic element",
    "uses": [],
    "notes": "Element of the transition-metal group"
  },
  "lastUpdated": "2026-01-27",
  "educationalNotes": "Roentgenium is named after Wilhelm Röntgen - discovered X-rays! Roentgenium-280 half-life 3.6 seconds. Synthesized in 1994. Transactinide - predicted gold-like. Chemistry essentially unknown. Few atoms produced. Named in 2004. Super-heavy element properties unpredictable. Research frontier. No applications.",
  "diffusion": {
    "atomicDiffusionVolume": 18,
    "unit": "dimensionless (cm³/mol conceptually)",
    "source": "Estimated",
    "note": "Roentgenium - superheavy estimate",
    "equation": "Fuller-Schettler-Giddings (1966)",
    "usage": "Sum atomic contributions for compound Σv, then: D_AB = 0.00143×T^1.75 / (P × M_AB^0.5 × (Σv_A^(1/3) + Σv_B^(1/3))²)"
  }
}
