{
  "atomicNumber": 112,
  "symbol": "Cn",
  "name": "Copernicium",
  "elementCategory": "transition-metal",
  "chemicalBlock": "d",
  "valenceElectrons": 12,
  "oxidationStates": [
    12
  ],
  "standardUsed": "iupac",
  "nist": {
    "atomicMass": 285,
    "electronegativity": null,
    "ionizationEnergy": 600,
    "atomicRadius": 220,
    "electronAffinity": 0,
    "standardMolarEntropy": null,
    "specificHeatCapacity": null,
    "meltingPoint": 357,
    "boilingPoint": 523,
    "density": null,
    "thermalConductivity": null,
    "source": "NIST Chemistry WebBook 2024"
  },
  "iupac": {
    "atomicMass": 285,
    "electronegativity": null,
    "ionizationEnergy": 600,
    "atomicRadius": 220,
    "electronAffinity": 0,
    "standardMolarEntropy": null,
    "specificHeatCapacity": null,
    "meltingPoint": 357,
    "boilingPoint": 523,
    "density": null,
    "thermalConductivity": null,
    "source": "IUPAC Periodic Table 2024"
  },
  "physicalProperties": {
    "phase": "solid",
    "appearance": "synthetic element",
    "uses": [],
    "notes": "Element of the transition-metal group"
  },
  "lastUpdated": "2026-01-27",
  "educationalNotes": "Copernicium is named after Nicolaus Copernicus - father of heliocentrism! Copernicium-285 half-life 29 seconds. Synthesized in 1996. Transactinide - predicted mercury-like. Flash chemistry studies performed. Named in 2010. First element named after person (Copernicus). Extremely short-lived. Research element."
}
