{
  "atomicNumber": 114,
  "symbol": "Fl",
  "name": "Flerovium",
  "elementCategory": "post-transition-metal",
  "chemicalBlock": "p",
  "valenceElectrons": 4,
  "oxidationStates": [
    4
  ],
  "standardUsed": "iupac",
  "nist": {
    "atomicMass": 289,
    "electronegativity": null,
    "ionizationEnergy": 600,
    "atomicRadius": 220,
    "electronAffinity": 0,
    "standardMolarEntropy": null,
    "specificHeatCapacity": null,
    "meltingPoint": 61,
    "boilingPoint": 210,
    "density": null,
    "thermalConductivity": null,
    "source": "NIST Chemistry WebBook 2024"
  },
  "iupac": {
    "atomicMass": 289,
    "electronegativity": null,
    "ionizationEnergy": 600,
    "atomicRadius": 220,
    "electronAffinity": 0,
    "standardMolarEntropy": null,
    "specificHeatCapacity": null,
    "meltingPoint": 61,
    "boilingPoint": 210,
    "density": null,
    "thermalConductivity": null,
    "source": "IUPAC Periodic Table 2024"
  },
  "physicalProperties": {
    "phase": "solid",
    "appearance": "synthetic element",
    "uses": [],
    "notes": "Element of the post-transition-metal group"
  },
  "lastUpdated": "2026-01-27",
  "educationalNotes": "Flerovium is named after Flerov Laboratory - Russian nuclear research center! Flerovium-289 half-life 2.7 seconds. Synthesized in 1999. Transactinide - predicted lead-like. Super-heavy chemistry barely explored. Few atoms produced. Named in 2012. Heavy element physics frontier. Research element only.",
  "diffusion": {
    "atomicDiffusionVolume": 24,
    "unit": "dimensionless (cm³/mol conceptually)",
    "source": "Estimated",
    "note": "Flerovium - superheavy estimate",
    "equation": "Fuller-Schettler-Giddings (1966)",
    "usage": "Sum atomic contributions for compound Σv, then: D_AB = 0.00143×T^1.75 / (P × M_AB^0.5 × (Σv_A^(1/3) + Σv_B^(1/3))²)"
  }
}
