{
  "atomicNumber": 116,
  "symbol": "Lv",
  "name": "Livermorium",
  "elementCategory": "post-transition-metal",
  "chemicalBlock": "p",
  "valenceElectrons": 6,
  "oxidationStates": [
    6
  ],
  "standardUsed": "iupac",
  "nist": {
    "atomicMass": 293,
    "electronegativity": null,
    "ionizationEnergy": 600,
    "atomicRadius": 220,
    "electronAffinity": 0,
    "standardMolarEntropy": null,
    "specificHeatCapacity": null,
    "meltingPoint": 637,
    "boilingPoint": 1035,
    "density": null,
    "thermalConductivity": null,
    "source": "NIST Chemistry WebBook 2024"
  },
  "iupac": {
    "atomicMass": 293,
    "electronegativity": null,
    "ionizationEnergy": 600,
    "atomicRadius": 220,
    "electronAffinity": 0,
    "standardMolarEntropy": null,
    "specificHeatCapacity": null,
    "meltingPoint": 637,
    "boilingPoint": 1035,
    "density": null,
    "thermalConductivity": null,
    "source": "IUPAC Periodic Table 2024"
  },
  "physicalProperties": {
    "phase": "solid",
    "appearance": "synthetic element",
    "uses": [],
    "notes": "Element of the post-transition-metal group"
  },
  "lastUpdated": "2026-01-27",
  "educationalNotes": "Livermorium is named after Livermore, California - Lawrence Livermore Lab! Livermorium-293 half-life 0.061 seconds. Synthesized in 2000. Transactinide - predicted flerovium-like. Decay studied instead of chemistry. Few atoms produced. Named in 2012. California physics contribution. Super-heavy element physics."
}
