{
  "atomicNumber": 117,
  "symbol": "Ts",
  "name": "Tennessine",
  "elementCategory": "halogen",
  "chemicalBlock": "p",
  "valenceElectrons": 7,
  "oxidationStates": [
    7,
    5,
    1,
    -1
  ],
  "standardUsed": "iupac",
  "nist": {
    "atomicMass": 294,
    "electronegativity": null,
    "ionizationEnergy": 600,
    "atomicRadius": 220,
    "electronAffinity": 0,
    "standardMolarEntropy": null,
    "specificHeatCapacity": null,
    "meltingPoint": 623,
    "boilingPoint": 723,
    "density": null,
    "thermalConductivity": null,
    "source": "NIST Chemistry WebBook 2024"
  },
  "iupac": {
    "atomicMass": 294,
    "electronegativity": null,
    "ionizationEnergy": 600,
    "atomicRadius": 220,
    "electronAffinity": 0,
    "standardMolarEntropy": null,
    "specificHeatCapacity": null,
    "meltingPoint": 623,
    "boilingPoint": 723,
    "density": null,
    "thermalConductivity": null,
    "source": "IUPAC Periodic Table 2024"
  },
  "physicalProperties": {
    "phase": "solid",
    "appearance": "synthetic element",
    "uses": [],
    "notes": "Element of the halogen group"
  },
  "lastUpdated": "2026-01-27",
  "educationalNotes": "Tennessine is named after Tennessee, USA - element produced in Tennessee facilities! Tennessine-294 half-life 0.89 seconds. Synthesized in 2010. Transactinide - predicted halogen-like (!). Flash chemistry studied - unusual! Named in 2016. American physics achievement. Predicted reactive (unlike other super-hevies). Research frontier."
}
