{
  "atomicNumber": 118,
  "symbol": "Og",
  "name": "Oganesson",
  "elementCategory": "noble-gas",
  "chemicalBlock": "p",
  "valenceElectrons": 8,
  "oxidationStates": [],
  "standardUsed": "iupac",
  "nist": {
    "atomicMass": 294,
    "electronegativity": null,
    "ionizationEnergy": 600,
    "atomicRadius": 220,
    "electronAffinity": 0,
    "standardMolarEntropy": null,
    "specificHeatCapacity": null,
    "meltingPoint": 258,
    "boilingPoint": 350,
    "density": null,
    "thermalConductivity": null,
    "source": "NIST Chemistry WebBook 2024"
  },
  "iupac": {
    "atomicMass": 294,
    "electronegativity": null,
    "ionizationEnergy": 600,
    "atomicRadius": 220,
    "electronAffinity": 0,
    "standardMolarEntropy": null,
    "specificHeatCapacity": null,
    "meltingPoint": 258,
    "boilingPoint": 350,
    "density": null,
    "thermalConductivity": null,
    "source": "IUPAC Periodic Table 2024"
  },
  "physicalProperties": {
    "phase": "gas",
    "appearance": "synthetic element",
    "uses": [],
    "notes": "Element of the noble-gas group"
  },
  "lastUpdated": "2026-01-27",
  "educationalNotes": "Oganesson is named after Yuri Oganessian - Russian nuclear physicist! Oganesson-294 half-life 0.89 milliseconds. Synthesized in 2006. Completes period 7 and periodic table. Predicted noble-gas-like but also unusually reactive. Chemistry essentially unknown. Named in 2016. Final element on periodic table (for now). Physics frontier - superheavy element chemistry.",
  "diffusion": {
    "atomicDiffusionVolume": 42,
    "unit": "dimensionless (cm³/mol conceptually)",
    "source": "Estimated",
    "note": "Oganesson - superheavy noble gas estimate",
    "equation": "Fuller-Schettler-Giddings (1966)",
    "usage": "Sum atomic contributions for compound Σv, then: D_AB = 0.00143×T^1.75 / (P × M_AB^0.5 × (Σv_A^(1/3) + Σv_B^(1/3))²)"
  }
}
